
     Program PWSCF v.6.5 starts on 26Jan2021 at 11:15:51 

     This program is part of the open-source Quantum ESPRESSO suite
     for quantum simulation of materials; please cite
         "P. Giannozzi et al., J. Phys.:Condens. Matter 21 395502 (2009);
         "P. Giannozzi et al., J. Phys.:Condens. Matter 29 465901 (2017);
          URL http://www.quantum-espresso.org", 
     in publications or presentations arising from this work. More details at
     http://www.quantum-espresso.org/quote

     Parallel version (MPI), running on     4 processors

     MPI processes distributed on     1 nodes
     R & G space division:  proc/nbgrp/npool/nimage =       4
     Waiting for input...
     Reading input from standard input
     Message from routine read_cards :
     DEPRECATED: no units specified in ATOMIC_POSITIONS card
     Message from routine read_cards :
     ATOMIC_POSITIONS: units set to alat

     Current dimensions of program PWSCF are:
     Max number of different atomic species (ntypx) = 10
     Max number of k-points (npk) =  40000
     Max angular momentum in pseudopotentials (lmaxx) =  3

     Atomic positions and unit cell read from directory:
     /home/edmondium/quantum/tempdir/pwscf.save/                                                                                                                                                                                                                     

               file Co.pz-nd-rrkjus.UPF: wavefunction(s)  4S 3D renormalized

     Subspace diagonalization in iterative solution of the eigenvalue problem:
     a serial algorithm will be used


     Parallelization info
     --------------------
     sticks:   dense  smooth     PW     G-vecs:    dense   smooth      PW
     Min          94      46     15                11772     3912     761
     Max          95      47     16                11803     3939     770
     Sum         379     187     61                47169    15709    3061



     bravais-lattice index     =            4
     lattice parameter (alat)  =       4.7377  a.u.
     unit-cell volume          =     708.2427 (a.u.)^3
     number of atoms/cell      =            2
     number of atomic types    =            1
     number of electrons       =        18.00
     number of Kohn-Sham states=           28
     kinetic-energy cutoff     =      30.0000  Ry
     charge density cutoff     =     250.0000  Ry
     Exchange-correlation= SLA PZ NOGX NOGC
                           (   1   1   0   0   0   0   0)

     celldm(1)=   4.737732  celldm(2)=   0.000000  celldm(3)=   7.690240
     celldm(4)=   0.000000  celldm(5)=   0.000000  celldm(6)=   0.000000

     crystal axes: (cart. coord. in units of alat)
               a(1) = (   1.000000   0.000000   0.000000 )  
               a(2) = (  -0.500000   0.866025   0.000000 )  
               a(3) = (   0.000000   0.000000   7.690240 )  

     reciprocal axes: (cart. coord. in units 2 pi/alat)
               b(1) = (  1.000000  0.577350 -0.000000 )  
               b(2) = (  0.000000  1.154701  0.000000 )  
               b(3) = (  0.000000 -0.000000  0.130035 )  


     PseudoPot. # 1 for Co read from file:
     /home/edmondium/quantum/pseudo/Co.pz-nd-rrkjus.UPF
     MD5 check sum: fae6bc0a00aacc25185164d8aa4130d9
     Pseudo is Ultrasoft + core correction, Zval =  9.0
     Generated by new atomic code, or converted to UPF format
     Using radial grid of  961 points,  6 beta functions with: 
                l(1) =   0
                l(2) =   0
                l(3) =   1
                l(4) =   1
                l(5) =   2
                l(6) =   2
     Q(r) pseudized with 0 coefficients 


     atomic species   valence    mass     pseudopotential
        Co             9.00    58.93319     Co( 1.00)

     Starting magnetic structure 
     atomic species   magnetization
        Co          -1.000

     No symmetry found



   Cartesian axes

     site n.     atom                  positions (alat units)
         1           Co  tau(   1) = (   0.0000000   0.0000000   0.0000000  )
         2           Co  tau(   2) = (   0.3330000   0.6670000   0.2500000  )

     number of k points=   210

     Number of k-points >= 100: set verbosity='high' to print them.

     Dense  grid:    47169 G-vectors     FFT dimensions: (  24,  24, 192)

     Smooth grid:    15709 G-vectors     FFT dimensions: (  18,  18, 128)

     Estimated max dynamical RAM per process >      40.31 MB

     Estimated total dynamical RAM >     161.24 MB
     Generating pointlists ...
     new r_m :   0.1487 (alat units)  0.7046 (a.u.) for type    1

     Check: negative core charge=   -0.000054

     The potential is recalculated from file :
     /home/edmondium/quantum/tempdir/pwscf.save/charge-density

     Starting wfcs are random

     Band Structure Calculation
     CG style diagonalization
     c_bands:  1 eigenvalues not converged
     c_bands:  1 eigenvalues not converged
     c_bands:  1 eigenvalues not converged
     c_bands:  2 eigenvalues not converged
     c_bands:  1 eigenvalues not converged
     c_bands:  1 eigenvalues not converged
     c_bands:  1 eigenvalues not converged
     c_bands:  1 eigenvalues not converged
     c_bands:  1 eigenvalues not converged
     c_bands:  1 eigenvalues not converged
     c_bands:  1 eigenvalues not converged
     c_bands:  1 eigenvalues not converged
     c_bands:  1 eigenvalues not converged
     c_bands:  1 eigenvalues not converged
     c_bands:  2 eigenvalues not converged
     c_bands:  1 eigenvalues not converged
     c_bands:  1 eigenvalues not converged
     c_bands:  1 eigenvalues not converged
     c_bands:  1 eigenvalues not converged
     c_bands:  1 eigenvalues not converged
     c_bands:  2 eigenvalues not converged
     c_bands:  2 eigenvalues not converged
     c_bands:  1 eigenvalues not converged
     c_bands:  1 eigenvalues not converged
     c_bands:  1 eigenvalues not converged
     c_bands:  1 eigenvalues not converged
     c_bands:  1 eigenvalues not converged
     c_bands:  1 eigenvalues not converged
     c_bands:  1 eigenvalues not converged
     c_bands:  1 eigenvalues not converged
     c_bands:  1 eigenvalues not converged
     c_bands:  1 eigenvalues not converged
     c_bands:  2 eigenvalues not converged
     c_bands:  1 eigenvalues not converged
     c_bands:  2 eigenvalues not converged
     c_bands:  1 eigenvalues not converged
     c_bands:  1 eigenvalues not converged
     c_bands:  1 eigenvalues not converged
     c_bands:  1 eigenvalues not converged
     c_bands:  1 eigenvalues not converged
     c_bands:  1 eigenvalues not converged
     c_bands:  1 eigenvalues not converged
     c_bands:  1 eigenvalues not converged
     c_bands:  1 eigenvalues not converged
     c_bands:  2 eigenvalues not converged
     c_bands:  2 eigenvalues not converged
     c_bands:  1 eigenvalues not converged
     c_bands:  2 eigenvalues not converged
     c_bands:  1 eigenvalues not converged
     c_bands:  1 eigenvalues not converged
     c_bands:  1 eigenvalues not converged
     c_bands:  2 eigenvalues not converged
     c_bands:  1 eigenvalues not converged
     c_bands:  1 eigenvalues not converged
     c_bands:  1 eigenvalues not converged
     c_bands:  2 eigenvalues not converged
     c_bands:  1 eigenvalues not converged
     c_bands:  1 eigenvalues not converged
     c_bands:  1 eigenvalues not converged
     c_bands:  1 eigenvalues not converged
     c_bands:  1 eigenvalues not converged
     c_bands:  1 eigenvalues not converged
     c_bands:  1 eigenvalues not converged
     c_bands:  1 eigenvalues not converged
     c_bands:  1 eigenvalues not converged
     c_bands:  2 eigenvalues not converged
     c_bands:  2 eigenvalues not converged
     c_bands:  1 eigenvalues not converged
     c_bands:  1 eigenvalues not converged
     c_bands:  1 eigenvalues not converged
     c_bands:  1 eigenvalues not converged
     c_bands:  2 eigenvalues not converged
     c_bands:  1 eigenvalues not converged
     c_bands:  1 eigenvalues not converged
     c_bands:  1 eigenvalues not converged
     c_bands:  1 eigenvalues not converged
     c_bands:  1 eigenvalues not converged
     c_bands:  1 eigenvalues not converged
     c_bands:  1 eigenvalues not converged
     c_bands:  1 eigenvalues not converged
     c_bands:  1 eigenvalues not converged
     c_bands:  1 eigenvalues not converged
     c_bands:  1 eigenvalues not converged
     c_bands:  2 eigenvalues not converged
     c_bands:  1 eigenvalues not converged
     c_bands:  1 eigenvalues not converged
     c_bands:  1 eigenvalues not converged
     c_bands:  1 eigenvalues not converged
     c_bands:  2 eigenvalues not converged
     c_bands:  1 eigenvalues not converged
     c_bands:  3 eigenvalues not converged
     c_bands:  1 eigenvalues not converged
     c_bands:  1 eigenvalues not converged
     c_bands:  1 eigenvalues not converged
     c_bands:  1 eigenvalues not converged
     c_bands:  1 eigenvalues not converged
     c_bands:  1 eigenvalues not converged
     c_bands:  1 eigenvalues not converged
     c_bands:  2 eigenvalues not converged
     c_bands:  1 eigenvalues not converged
     c_bands:  2 eigenvalues not converged
     c_bands:  1 eigenvalues not converged
     c_bands:  1 eigenvalues not converged
     c_bands:  1 eigenvalues not converged
     c_bands:  1 eigenvalues not converged
     c_bands:  1 eigenvalues not converged
     c_bands:  1 eigenvalues not converged
     c_bands:  1 eigenvalues not converged
     c_bands:  1 eigenvalues not converged
     c_bands:  2 eigenvalues not converged
     c_bands:  2 eigenvalues not converged
     c_bands:  1 eigenvalues not converged
     c_bands:  2 eigenvalues not converged
     c_bands:  2 eigenvalues not converged
     c_bands:  1 eigenvalues not converged
     c_bands:  2 eigenvalues not converged
     c_bands:  1 eigenvalues not converged
     c_bands:  1 eigenvalues not converged
     c_bands:  1 eigenvalues not converged
     c_bands:  2 eigenvalues not converged
     c_bands:  1 eigenvalues not converged
     c_bands:  1 eigenvalues not converged
     c_bands:  1 eigenvalues not converged
     c_bands:  1 eigenvalues not converged
     c_bands:  1 eigenvalues not converged
     c_bands:  1 eigenvalues not converged
     c_bands:  1 eigenvalues not converged
     c_bands:  1 eigenvalues not converged
     c_bands:  1 eigenvalues not converged
     c_bands:  2 eigenvalues not converged
     c_bands:  2 eigenvalues not converged
     c_bands:  1 eigenvalues not converged
     c_bands:  1 eigenvalues not converged

     ethr =  5.56E-13,  avg # of iterations = 66.1

     total cpu time spent up to now is      566.7 secs

     End of band structure calculation

     Number of k-points >= 100: set verbosity='high' to print the bands.

     highest occupied, lowest unoccupied level (ev):    -1.0223   -2.2607



               ==================================================
                            POLARIZATION CALCULATION
                         !!! NOT THOROUGHLY TESTED !!!
               --------------------------------------------------


                     K-POINTS STRINGS USED IN CALCULATIONS
                     ~~~~~~~~~~~~~~~~~~~~~~~~~~~~~~~~~~~~~

       G-vector along string (2 pi/a):  0.00000  0.00000  0.13003
       Modulus of the vector (1/bohr):  0.17245
       Number of k-points per string:   7
       Number of different strings  :  30


                               IONIC POLARIZATION
                               ~~~~~~~~~~~~~~~~~~

  ============================================================================
    Ion    Species    Charge              Position                Phase
  ----------------------------------------------------------------------------
     1        Co       9.000       0.0000  0.0000  0.0000     0.00000 (mod 1)
     2        Co       9.000       0.3330  0.6670  0.2500     0.29258 (mod 1)
  ----------------------------------------------------------------------------
                                               IONIC PHASE:   0.29258 (mod 1)
  ============================================================================


                            ELECTRONIC POLARIZATION
                            ~~~~~~~~~~~~~~~~~~~~~~~

  ============================================================================
   Spin    String     Weight      First k-point in string         Phase
  ----------------------------------------------------------------------------
    up        1      0.003906      0.0000  0.0000  0.0000    -0.14628
    up        2      0.023437      0.0000  0.0722  0.0000    -0.14629
    up        3      0.023437      0.0000  0.1443  0.0000    -0.14629
    up        4      0.023437      0.0000  0.2165  0.0000    -0.14629
    up        5      0.023437      0.0000  0.2887  0.0000    -0.14629
    up        6      0.023437      0.0000  0.3608  0.0000    -0.14629
    up        7      0.023437      0.0000  0.4330  0.0000    -0.14629
    up        8      0.023437      0.0000  0.5052  0.0000    -0.14629
    up        9      0.011719      0.0000 -0.5774  0.0000    -0.14629
    up       10      0.023437      0.0625  0.1083  0.0000    -0.14629
    up       11      0.046875      0.0625  0.1804  0.0000    -0.14629
    up       12      0.046875      0.0625  0.2526  0.0000    -0.14629
    up       13      0.046875      0.0625  0.3248  0.0000    -0.14629
    up       14      0.046875      0.0625  0.3969  0.0000    -0.14629
    up       15      0.046875      0.0625  0.4691  0.0000    -0.14629
    up       16      0.046875      0.0625  0.5413  0.0000    -0.14629
    up       17      0.023437      0.1250  0.2165  0.0000    -0.14629
    up       18      0.046875      0.1250  0.2887  0.0000    -0.14629
    up       19      0.046875      0.1250  0.3608  0.0000    -0.14629
    up       20      0.046875      0.1250  0.4330  0.0000    -0.14629
    up       21      0.046875      0.1250  0.5052  0.0000    -0.14629
    up       22      0.023437      0.1250  0.5774  0.0000    -0.14629
    up       23      0.023437      0.1875  0.3248  0.0000    -0.14629
    up       24      0.046875      0.1875  0.3969  0.0000    -0.14629
    up       25      0.046875      0.1875  0.4691  0.0000    -0.14629
    up       26      0.046875      0.1875  0.5413  0.0000    -0.14629
    up       27      0.023437      0.2500  0.4330  0.0000    -0.14629
    up       28      0.046875      0.2500  0.5052  0.0000    -0.14629
    up       29      0.023437      0.2500  0.5774  0.0000    -0.14629
    up       30      0.023437      0.3125  0.5413  0.0000    -0.14629
  ----------------------------------------------------------------------------
   down     31       0.003906      0.0000  0.0000  0.0000    -0.14628
   down     32       0.023437      0.0000  0.0722  0.0000    -0.14629
   down     33       0.023437      0.0000  0.1443  0.0000    -0.14629
   down     34       0.023437      0.0000  0.2165  0.0000    -0.14629
   down     35       0.023437      0.0000  0.2887  0.0000    -0.14629
   down     36       0.023437      0.0000  0.3608  0.0000    -0.14629
   down     37       0.023437      0.0000  0.4330  0.0000    -0.14629
   down     38       0.023437      0.0000  0.5052  0.0000    -0.14629
   down     39       0.011719      0.0000 -0.5774  0.0000    -0.14629
   down     40       0.023437      0.0625  0.1083  0.0000    -0.14629
   down     41       0.046875      0.0625  0.1804  0.0000    -0.14629
   down     42       0.046875      0.0625  0.2526  0.0000    -0.14629
   down     43       0.046875      0.0625  0.3248  0.0000    -0.14629
   down     44       0.046875      0.0625  0.3969  0.0000    -0.14629
   down     45       0.046875      0.0625  0.4691  0.0000    -0.14629
   down     46       0.046875      0.0625  0.5413  0.0000    -0.14629
   down     47       0.023437      0.1250  0.2165  0.0000    -0.14629
   down     48       0.046875      0.1250  0.2887  0.0000    -0.14629
   down     49       0.046875      0.1250  0.3608  0.0000    -0.14629
   down     50       0.046875      0.1250  0.4330  0.0000    -0.14629
   down     51       0.046875      0.1250  0.5052  0.0000    -0.14629
   down     52       0.023437      0.1250  0.5774  0.0000    -0.14629
   down     53       0.023437      0.1875  0.3248  0.0000    -0.14629
   down     54       0.046875      0.1875  0.3969  0.0000    -0.14629
   down     55       0.046875      0.1875  0.4691  0.0000    -0.14629
   down     56       0.046875      0.1875  0.5413  0.0000    -0.14629
   down     57       0.023437      0.2500  0.4330  0.0000    -0.14629
   down     58       0.046875      0.2500  0.5052  0.0000    -0.14629
   down     59       0.023437      0.2500  0.5774  0.0000    -0.14629
   down     60       0.023437      0.3125  0.5413  0.0000    -0.14629
  ----------------------------------------------------------------------------
                                        Average phase (up):  -0.14629
                                      Average phase (down):  -0.14629
                                          ELECTRONIC PHASE:  -0.29258
  ============================================================================


                               SUMMARY OF PHASES
                               ~~~~~~~~~~~~~~~~~

                          Ionic Phase:  0.29258
                     Electronic Phase: -0.29258
                          TOTAL PHASE:  0.00000 MOD_TOT: 1


                             VALUES OF POLARIZATION
                             ~~~~~~~~~~~~~~~~~~~~~~

        The calculation of phases done along the direction of vector 3
        of the reciprocal lattice gives the following contribution to
        the polarization vector (in different units, and being Omega
        the volume of the unit cell):

           P =   0.0000398  (mod  36.4343012)  (e/Omega).bohr

           P =   0.0000001  (mod   0.0514432)  e/bohr^2

           P =   0.0000032  (mod   2.9410987)  C/m^2

        The polarization direction is:  ( 0.00000 , 0.00000 , 1.00000 )


               ==================================================



     Writing output data file /home/edmondium/quantum/tempdir/pwscf.save/

     init_run     :      0.33s CPU      0.40s WALL (       1 calls)
     electrons    :    535.74s CPU    563.91s WALL (       1 calls)

     Called by init_run:
     wfcinit      :      0.00s CPU      0.00s WALL (       1 calls)
     potinit      :      0.03s CPU      0.04s WALL (       1 calls)
     hinit0       :      0.14s CPU      0.14s WALL (       1 calls)

     Called by electrons:
     c_bands      :    534.30s CPU    562.34s WALL (       1 calls)
     v_of_rho     :      0.02s CPU      0.02s WALL (       1 calls)
     newd         :      0.09s CPU      0.15s WALL (       1 calls)

     Called by c_bands:
     init_us_2    :      0.28s CPU      0.30s WALL (    1140 calls)
     ccgdiagg     :    506.04s CPU    532.50s WALL (    2175 calls)
     wfcrot       :     27.58s CPU     29.08s WALL (    2175 calls)

     Called by sum_band:

     Called by *cgdiagg:
     h_psi        :    390.51s CPU    411.15s WALL (  705618 calls)
     s_psi        :     24.19s CPU     25.85s WALL ( 1409061 calls)
     cdiaghg      :      0.80s CPU      0.84s WALL (    2175 calls)

     Called by h_psi:
     h_psi:calbec :     35.25s CPU     37.08s WALL (  705618 calls)
     vloc_psi     :    292.35s CPU    307.88s WALL (  705618 calls)
     add_vuspsi   :     58.09s CPU     61.46s WALL (  705618 calls)
     hs_1psi      :    384.67s CPU    404.68s WALL (  703443 calls)
     s_1psi       :     31.92s CPU     33.37s WALL (  703443 calls)

     General routines
     calbec       :     50.75s CPU     53.87s WALL ( 1409781 calls)
     fft          :      0.05s CPU      0.05s WALL (       9 calls)
     ffts         :      0.00s CPU      0.00s WALL (       2 calls)
     fftw         :    252.08s CPU    265.46s WALL ( 1528686 calls)
     interpolate  :      0.01s CPU      0.01s WALL (       2 calls)
     davcio       :      0.28s CPU      0.38s WALL (    1560 calls)

     Parallel routines
     fft_scatt_xy :     26.83s CPU     28.22s WALL ( 1528697 calls)
     fft_scatt_yz :     90.14s CPU     95.14s WALL ( 1528697 calls)

     PWSCF        :   8m60.00s CPU   9m29.23s WALL


   This run was terminated on:  11:25:20  26Jan2021            

=------------------------------------------------------------------------------=
   JOB DONE.
=------------------------------------------------------------------------------=
