
     Program PWSCF v.6.5 starts on 13Jan2021 at 20: 1:43 

     This program is part of the open-source Quantum ESPRESSO suite
     for quantum simulation of materials; please cite
         "P. Giannozzi et al., J. Phys.:Condens. Matter 21 395502 (2009);
         "P. Giannozzi et al., J. Phys.:Condens. Matter 29 465901 (2017);
          URL http://www.quantum-espresso.org", 
     in publications or presentations arising from this work. More details at
     http://www.quantum-espresso.org/quote

     Parallel version (MPI), running on     2 processors

     MPI processes distributed on     1 nodes
     R & G space division:  proc/nbgrp/npool/nimage =       2
     Waiting for input...
     Reading input from standard input

     Current dimensions of program PWSCF are:
     Max number of different atomic species (ntypx) = 10
     Max number of k-points (npk) =  40000
     Max angular momentum in pseudopotentials (lmaxx) =  3

     Atomic positions and unit cell read from directory:
     /home/edmondium/Documents/qe-6.7/tempdir/pwscf.save/                                                                                                                                                                                                            

               file Cr.pbe-spn-rrkjus_psl.1.0.0.UPF: wavefunction(s)  3P renormalized

     Subspace diagonalization in iterative solution of the eigenvalue problem:
     a serial algorithm will be used


     Parallelization info
     --------------------
     sticks:   dense  smooth     PW     G-vecs:    dense   smooth      PW
     Min         166     166     75                 1890     1890     578
     Max         167     167     76                 1891     1891     579
     Sum         333     333    151                 3781     3781    1157



     bravais-lattice index     =            3
     lattice parameter (alat)  =       5.4991  a.u.
     unit-cell volume          =      83.1467 (a.u.)^3
     number of atoms/cell      =            1
     number of atomic types    =            1
     number of electrons       =        14.00
     number of Kohn-Sham states=           28
     kinetic-energy cutoff     =      48.0000  Ry
     charge density cutoff     =     192.0000  Ry
     Exchange-correlation= PBE
                           (   1   4   3   4   0   0   0)

     celldm(1)=   5.499100  celldm(2)=   0.000000  celldm(3)=   0.000000
     celldm(4)=   0.000000  celldm(5)=   0.000000  celldm(6)=   0.000000

     crystal axes: (cart. coord. in units of alat)
               a(1) = (   0.500000   0.500000   0.500000 )  
               a(2) = (  -0.500000   0.500000   0.500000 )  
               a(3) = (  -0.500000  -0.500000   0.500000 )  

     reciprocal axes: (cart. coord. in units 2 pi/alat)
               b(1) = (  1.000000  0.000000  1.000000 )  
               b(2) = ( -1.000000  1.000000  0.000000 )  
               b(3) = (  0.000000 -1.000000  1.000000 )  


     PseudoPot. # 1 for Cr read from file:
     /home/edmondium/Documents/qe-6.7/pseudo/Cr.pbe-spn-rrkjus_psl.1.0.0.UPF
     MD5 check sum: 793d051e4f89dd1e3290b85340a92c0a
     Pseudo is Ultrasoft + core correction, Zval = 14.0
     Generated using "atomic" code by A. Dal Corso v.6.2.2
     Using radial grid of 1183 points,  6 beta functions with: 
                l(1) =   0
                l(2) =   0
                l(3) =   1
                l(4) =   1
                l(5) =   2
                l(6) =   2
     Q(r) pseudized with 0 coefficients 


     atomic species   valence    mass     pseudopotential
        Cr            14.00    51.99610     Cr( 1.00)

     No symmetry found



   Cartesian axes

     site n.     atom                  positions (alat units)
         1           Cr  tau(   1) = (   0.0000000   0.0000000   0.0000000  )

     number of k points=   210

     Number of k-points >= 100: set verbosity='high' to print them.

     Dense  grid:     3781 G-vectors     FFT dimensions: (  24,  24,  24)

     Estimated max dynamical RAM per process >       7.25 MB

     Estimated total dynamical RAM >      14.50 MB

     Check: negative core charge=   -0.000063

     The potential is recalculated from file :
     /home/edmondium/Documents/qe-6.7/tempdir/pwscf.save/charge-density

     Starting wfcs are random

     Band Structure Calculation
     CG style diagonalization

     ethr =  7.14E-13,  avg # of iterations = 50.7

     total cpu time spent up to now is      175.9 secs

     End of band structure calculation

     Number of k-points >= 100: set verbosity='high' to print the bands.

     highest occupied, lowest unoccupied level (ev):    19.2102   17.3575



               ==================================================
                            POLARIZATION CALCULATION
                         !!! NOT THOROUGHLY TESTED !!!
               --------------------------------------------------


                     K-POINTS STRINGS USED IN CALCULATIONS
                     ~~~~~~~~~~~~~~~~~~~~~~~~~~~~~~~~~~~~~

       G-vector along string (2 pi/a):  0.00000 -1.00000  1.00000
       Modulus of the vector (1/bohr):  1.61586
       Number of k-points per string:   7
       Number of different strings  :  30


                               IONIC POLARIZATION
                               ~~~~~~~~~~~~~~~~~~

  ============================================================================
    Ion    Species    Charge              Position                Phase
  ----------------------------------------------------------------------------
     1        Cr      14.000       0.0000  0.0000  0.0000     0.00000 (mod 2)
  ----------------------------------------------------------------------------
                                               IONIC PHASE:   0.00000 (mod 2)
  ============================================================================


                            ELECTRONIC POLARIZATION
                            ~~~~~~~~~~~~~~~~~~~~~~~

  ============================================================================
    String     Weight      First k-point in string         Phase
  ----------------------------------------------------------------------------
       1      0.003906      0.0000  0.0000  0.0000     1.00000
       2      0.023437     -0.0625  0.0625  0.0000     1.00001
       3      0.023437     -0.1250  0.1250  0.0000     2.00000
       4      0.023437     -0.1875  0.1875  0.0000     0.00000
       5      0.023437     -0.2500  0.2500  0.0000     0.00000
       6      0.023437     -0.3125  0.3125  0.0000     0.00000
       7      0.023437     -0.3750  0.3750  0.0000     2.00000
       8      0.023437     -0.4375  0.4375  0.0000     0.00000
       9      0.011719      0.5000 -0.5000  0.0000     0.00000
      10      0.023437     -0.0625  0.1250  0.0625     0.00000
      11      0.046875     -0.1250  0.1875  0.0625     0.00000
      12      0.046875     -0.1875  0.2500  0.0625     0.00000
      13      0.046875     -0.2500  0.3125  0.0625     0.00000
      14      0.046875     -0.3125  0.3750  0.0625     0.00000
      15      0.046875     -0.3750  0.4375  0.0625     0.00000
      16      0.046875      0.5625 -0.5000  0.0625     0.00000
      17      0.023437     -0.1250  0.2500  0.1250     2.00000
      18      0.046875     -0.1875  0.3125  0.1250     2.00000
      19      0.046875     -0.2500  0.3750  0.1250     0.00000
      20      0.046875     -0.3125  0.4375  0.1250     2.00000
      21      0.046875      0.6250 -0.5000  0.1250     2.00000
      22      0.023437      0.5625 -0.4375  0.1250     0.00000
      23      0.023437     -0.1875  0.3750  0.1875     2.00000
      24      0.046875     -0.2500  0.4375  0.1875     0.00000
      25      0.046875      0.6875 -0.5000  0.1875     0.00000
      26      0.046875      0.6250 -0.4375  0.1875     2.00000
      27      0.023437      0.7500 -0.5000  0.2500     0.00000
      28      0.046875      0.6875 -0.4375  0.2500     2.00000
      29      0.023437      0.6250 -0.3750  0.2500     2.00000
      30      0.023437      0.6875 -0.3750  0.3125     0.00000
  ----------------------------------------------------------------------------
                                          ELECTRONIC PHASE:  -0.26953
  ============================================================================


                               SUMMARY OF PHASES
                               ~~~~~~~~~~~~~~~~~

                          Ionic Phase:  0.00000
                     Electronic Phase: -0.26953
                          TOTAL PHASE: -0.26953 MOD_TOT: 2


                             VALUES OF POLARIZATION
                             ~~~~~~~~~~~~~~~~~~~~~~

        The calculation of phases done along the direction of vector 3
        of the reciprocal lattice gives the following contribution to
        the polarization vector (in different units, and being Omega
        the volume of the unit cell):

           P =  -1.2836031  (mod   9.5247206)  (e/Omega).bohr

           P =  -0.0154378  (mod   0.1145532)  e/bohr^2

           P =  -0.8826066  (mod   6.5492062)  C/m^2

        The polarization direction is:  (-0.57735 ,-0.57735 , 0.57735 )


               ==================================================



     Writing output data file /home/edmondium/Documents/qe-6.7/tempdir/pwscf.save/

     init_run     :      0.41s CPU      0.42s WALL (       1 calls)
     electrons    :    160.83s CPU    174.00s WALL (       1 calls)

     Called by init_run:
     wfcinit      :      0.00s CPU      0.00s WALL (       1 calls)
     potinit      :      0.01s CPU      0.01s WALL (       1 calls)
     hinit0       :      0.39s CPU      0.39s WALL (       1 calls)

     Called by electrons:
     c_bands      :    160.53s CPU    173.64s WALL (       1 calls)
     v_of_rho     :      0.01s CPU      0.01s WALL (       1 calls)
     newd         :      0.00s CPU      0.01s WALL (       1 calls)

     Called by c_bands:
     init_us_2    :      0.08s CPU      0.09s WALL (     570 calls)
     ccgdiagg     :    150.94s CPU    163.42s WALL (     679 calls)
     wfcrot       :      9.35s CPU      9.90s WALL (     679 calls)

     Called by sum_band:

     Called by *cgdiagg:
     h_psi        :    117.13s CPU    126.67s WALL (  276982 calls)
     s_psi        :      9.61s CPU     10.49s WALL (  553285 calls)
     cdiaghg      :      0.49s CPU      0.52s WALL (     679 calls)

     Called by h_psi:
     h_psi:calbec :      7.99s CPU      8.65s WALL (  276982 calls)
     vloc_psi     :    102.93s CPU    111.31s WALL (  276982 calls)
     add_vuspsi   :      4.70s CPU      5.13s WALL (  276982 calls)
     hs_1psi      :    116.68s CPU    126.24s WALL (  276303 calls)
     s_1psi       :     12.31s CPU     13.24s WALL (  276303 calls)

     General routines
     calbec       :     13.12s CPU     14.43s WALL (  553645 calls)
     fft          :      0.00s CPU      0.00s WALL (      12 calls)
     fftw         :     90.69s CPU     98.10s WALL (  590630 calls)
     davcio       :      0.06s CPU      0.13s WALL (     780 calls)

     Parallel routines
     fft_scatt_xy :     11.16s CPU     12.03s WALL (  590642 calls)
     fft_scatt_yz :     19.12s CPU     20.82s WALL (  590642 calls)

     PWSCF        :   2m43.22s CPU   2m56.44s WALL


   This run was terminated on:  20: 4:39  13Jan2021            

=------------------------------------------------------------------------------=
   JOB DONE.
=------------------------------------------------------------------------------=
