
     Program PWSCF v.6.5 starts on 31Jan2021 at 14: 2:45 

     This program is part of the open-source Quantum ESPRESSO suite
     for quantum simulation of materials; please cite
         "P. Giannozzi et al., J. Phys.:Condens. Matter 21 395502 (2009);
         "P. Giannozzi et al., J. Phys.:Condens. Matter 29 465901 (2017);
          URL http://www.quantum-espresso.org", 
     in publications or presentations arising from this work. More details at
     http://www.quantum-espresso.org/quote

     Parallel version (MPI), running on     4 processors

     MPI processes distributed on     1 nodes
     R & G space division:  proc/nbgrp/npool/nimage =       4
     Waiting for input...
     Reading input from standard input

     Current dimensions of program PWSCF are:
     Max number of different atomic species (ntypx) = 10
     Max number of k-points (npk) =  40000
     Max angular momentum in pseudopotentials (lmaxx) =  3

     Atomic positions and unit cell read from directory:
     /home/edmondium/quantum/tempdir/pwscf.save/                                                                                                                                                                                                                     

               file Cr.pbe-spn-rrkjus_psl.1.0.0.UPF: wavefunction(s)  3P renormalized

     Subspace diagonalization in iterative solution of the eigenvalue problem:
     a serial algorithm will be used


     Parallelization info
     --------------------
     sticks:   dense  smooth     PW     G-vecs:    dense   smooth      PW
     Min          83      83     37                  945      945     289
     Max          84      84     38                  946      946     290
     Sum         333     333    151                 3781     3781    1157



     bravais-lattice index     =            3
     lattice parameter (alat)  =       5.4991  a.u.
     unit-cell volume          =      83.1467 (a.u.)^3
     number of atoms/cell      =            1
     number of atomic types    =            1
     number of electrons       =        14.00
     number of Kohn-Sham states=           28
     kinetic-energy cutoff     =      48.0000  Ry
     charge density cutoff     =     192.0000  Ry
     Exchange-correlation= PBE
                           (   1   4   3   4   0   0   0)

     celldm(1)=   5.499100  celldm(2)=   0.000000  celldm(3)=   0.000000
     celldm(4)=   0.000000  celldm(5)=   0.000000  celldm(6)=   0.000000

     crystal axes: (cart. coord. in units of alat)
               a(1) = (   0.500000   0.500000   0.500000 )  
               a(2) = (  -0.500000   0.500000   0.500000 )  
               a(3) = (  -0.500000  -0.500000   0.500000 )  

     reciprocal axes: (cart. coord. in units 2 pi/alat)
               b(1) = (  1.000000  0.000000  1.000000 )  
               b(2) = ( -1.000000  1.000000  0.000000 )  
               b(3) = (  0.000000 -1.000000  1.000000 )  


     PseudoPot. # 1 for Cr read from file:
     /home/edmondium/quantum/pseudo/Cr.pbe-spn-rrkjus_psl.1.0.0.UPF
     MD5 check sum: 793d051e4f89dd1e3290b85340a92c0a
     Pseudo is Ultrasoft + core correction, Zval = 14.0
     Generated using "atomic" code by A. Dal Corso v.6.2.2
     Using radial grid of 1183 points,  6 beta functions with: 
                l(1) =   0
                l(2) =   0
                l(3) =   1
                l(4) =   1
                l(5) =   2
                l(6) =   2
     Q(r) pseudized with 0 coefficients 


     atomic species   valence    mass     pseudopotential
        Cr            14.00    51.99610     Cr( 1.00)

     No symmetry found



   Cartesian axes

     site n.     atom                  positions (alat units)
         1           Cr  tau(   1) = (   0.0000000   0.0000000   0.0000000  )

     number of k points=   210

     Number of k-points >= 100: set verbosity='high' to print them.

     Dense  grid:     3781 G-vectors     FFT dimensions: (  24,  24,  24)

     Estimated max dynamical RAM per process >       4.11 MB

     Estimated total dynamical RAM >      16.45 MB

     Check: negative core charge=   -0.000063

     The potential is recalculated from file :
     /home/edmondium/quantum/tempdir/pwscf.save/charge-density

     Starting wfcs are random

     Band Structure Calculation
     CG style diagonalization

     ethr =  7.14E-13,  avg # of iterations = 50.4

     total cpu time spent up to now is       60.4 secs

     End of band structure calculation

     Number of k-points >= 100: set verbosity='high' to print the bands.

     highest occupied, lowest unoccupied level (ev):    19.2102   17.3575



               ==================================================
                            POLARIZATION CALCULATION
                         !!! NOT THOROUGHLY TESTED !!!
               --------------------------------------------------


                     K-POINTS STRINGS USED IN CALCULATIONS
                     ~~~~~~~~~~~~~~~~~~~~~~~~~~~~~~~~~~~~~

       G-vector along string (2 pi/a):  0.00000 -1.00000  1.00000
       Modulus of the vector (1/bohr):  1.61586
       Number of k-points per string:   7
       Number of different strings  :  30


                               IONIC POLARIZATION
                               ~~~~~~~~~~~~~~~~~~

  ============================================================================
    Ion    Species    Charge              Position                Phase
  ----------------------------------------------------------------------------
     1        Cr      14.000       0.0000  0.0000  0.0000     0.00000 (mod 2)
  ----------------------------------------------------------------------------
                                               IONIC PHASE:   0.00000 (mod 2)
  ============================================================================


                            ELECTRONIC POLARIZATION
                            ~~~~~~~~~~~~~~~~~~~~~~~

  ============================================================================
    String     Weight      First k-point in string         Phase
  ----------------------------------------------------------------------------
       1      0.003906      0.0000  0.0000  0.0000    -1.00000
       2      0.023437     -0.0625  0.0625  0.0000    -0.99999
       3      0.023437     -0.1250  0.1250  0.0000    -0.00000
       4      0.023437     -0.1875  0.1875  0.0000    -0.00000
       5      0.023437     -0.2500  0.2500  0.0000    -0.00000
       6      0.023437     -0.3125  0.3125  0.0000    -2.00000
       7      0.023437     -0.3750  0.3750  0.0000    -0.00000
       8      0.023437     -0.4375  0.4375  0.0000    -2.00000
       9      0.011719      0.5000 -0.5000  0.0000    -1.99999
      10      0.023437     -0.0625  0.1250  0.0625    -1.99999
      11      0.046875     -0.1250  0.1875  0.0625    -2.00000
      12      0.046875     -0.1875  0.2500  0.0625    -0.00000
      13      0.046875     -0.2500  0.3125  0.0625    -0.00000
      14      0.046875     -0.3125  0.3750  0.0625    -0.00000
      15      0.046875     -0.3750  0.4375  0.0625    -2.00000
      16      0.046875      0.5625 -0.5000  0.0625    -0.00000
      17      0.023437     -0.1250  0.2500  0.1250    -0.00000
      18      0.046875     -0.1875  0.3125  0.1250    -0.00000
      19      0.046875     -0.2500  0.3750  0.1250    -2.00000
      20      0.046875     -0.3125  0.4375  0.1250    -0.00000
      21      0.046875      0.6250 -0.5000  0.1250    -2.00000
      22      0.023437      0.5625 -0.4375  0.1250    -2.00000
      23      0.023437     -0.1875  0.3750  0.1875    -2.00000
      24      0.046875     -0.2500  0.4375  0.1875    -0.00000
      25      0.046875      0.6875 -0.5000  0.1875    -0.00000
      26      0.046875      0.6250 -0.4375  0.1875    -2.00000
      27      0.023437      0.7500 -0.5000  0.2500    -2.00000
      28      0.046875      0.6875 -0.4375  0.2500    -2.00000
      29      0.023437      0.6250 -0.3750  0.2500    -2.00000
      30      0.023437      0.6875 -0.3750  0.3125    -2.00000
  ----------------------------------------------------------------------------
                                          ELECTRONIC PHASE:   0.01172
  ============================================================================


                               SUMMARY OF PHASES
                               ~~~~~~~~~~~~~~~~~

                          Ionic Phase:  0.00000
                     Electronic Phase:  0.01172
                          TOTAL PHASE:  0.01172 MOD_TOT: 2


                             VALUES OF POLARIZATION
                             ~~~~~~~~~~~~~~~~~~~~~~

        The calculation of phases done along the direction of vector 3
        of the reciprocal lattice gives the following contribution to
        the polarization vector (in different units, and being Omega
        the volume of the unit cell):

           P =   0.0558112  (mod   9.5247206)  (e/Omega).bohr

           P =   0.0006712  (mod   0.1145532)  e/bohr^2

           P =   0.0383758  (mod   6.5492062)  C/m^2

        The polarization direction is:  (-0.57735 ,-0.57735 , 0.57735 )


               ==================================================



     Writing output data file /home/edmondium/quantum/tempdir/pwscf.save/

     init_run     :      0.10s CPU      0.10s WALL (       1 calls)
     electrons    :     55.04s CPU     59.51s WALL (       1 calls)

     Called by init_run:
     wfcinit      :      0.00s CPU      0.00s WALL (       1 calls)
     potinit      :      0.00s CPU      0.00s WALL (       1 calls)
     hinit0       :      0.09s CPU      0.09s WALL (       1 calls)

     Called by electrons:
     c_bands      :     54.97s CPU     59.43s WALL (       1 calls)
     v_of_rho     :      0.00s CPU      0.00s WALL (       1 calls)
     newd         :      0.01s CPU      0.01s WALL (       1 calls)

     Called by c_bands:
     init_us_2    :      0.02s CPU      0.02s WALL (     570 calls)
     ccgdiagg     :     52.28s CPU     56.54s WALL (     668 calls)
     wfcrot       :      2.62s CPU      2.81s WALL (     668 calls)

     Called by sum_band:

     Called by *cgdiagg:
     h_psi        :     39.98s CPU     43.21s WALL (  275428 calls)
     s_psi        :      1.72s CPU      1.91s WALL (  550188 calls)
     cdiaghg      :      0.21s CPU      0.23s WALL (     668 calls)

     Called by h_psi:
     h_psi:calbec :      2.55s CPU      2.76s WALL (  275428 calls)
     vloc_psi     :     34.57s CPU     37.38s WALL (  275428 calls)
     add_vuspsi   :      1.91s CPU      2.07s WALL (  275428 calls)
     hs_1psi      :     40.12s CPU     43.35s WALL (  274760 calls)
     s_1psi       :      3.47s CPU      3.72s WALL (  274760 calls)

     General routines
     calbec       :      3.54s CPU      3.88s WALL (  550548 calls)
     fft          :      0.00s CPU      0.00s WALL (      12 calls)
     fftw         :     31.18s CPU     33.70s WALL (  586928 calls)
     davcio       :      0.02s CPU      0.03s WALL (     780 calls)

     Parallel routines
     fft_scatt_xy :      3.19s CPU      3.43s WALL (  586940 calls)
     fft_scatt_yz :     10.17s CPU     10.97s WALL (  586940 calls)

     PWSCF        :     56.12s CPU   1m 0.63s WALL


   This run was terminated on:  14: 3:46  31Jan2021            

=------------------------------------------------------------------------------=
   JOB DONE.
=------------------------------------------------------------------------------=
