
     Program PWSCF v.6.5 starts on 13Jan2021 at 20: 0: 0 

     This program is part of the open-source Quantum ESPRESSO suite
     for quantum simulation of materials; please cite
         "P. Giannozzi et al., J. Phys.:Condens. Matter 21 395502 (2009);
         "P. Giannozzi et al., J. Phys.:Condens. Matter 29 465901 (2017);
          URL http://www.quantum-espresso.org", 
     in publications or presentations arising from this work. More details at
     http://www.quantum-espresso.org/quote

     Parallel version (MPI), running on     2 processors

     MPI processes distributed on     1 nodes
     R & G space division:  proc/nbgrp/npool/nimage =       2
     Waiting for input...
     Reading input from standard input

     Current dimensions of program PWSCF are:
     Max number of different atomic species (ntypx) = 10
     Max number of k-points (npk) =  40000
     Max angular momentum in pseudopotentials (lmaxx) =  3
               file Cr.pbe-spn-rrkjus_psl.1.0.0.UPF: wavefunction(s)  3P renormalized

     Subspace diagonalization in iterative solution of the eigenvalue problem:
     a serial algorithm will be used


     Parallelization info
     --------------------
     sticks:   dense  smooth     PW     G-vecs:    dense   smooth      PW
     Min         166     166     51                 1890     1890     341
     Max         167     167     52                 1891     1891     342
     Sum         333     333    103                 3781     3781     683



     bravais-lattice index     =            3
     lattice parameter (alat)  =       5.4991  a.u.
     unit-cell volume          =      83.1467 (a.u.)^3
     number of atoms/cell      =            1
     number of atomic types    =            1
     number of electrons       =        14.00
     number of Kohn-Sham states=           25
     kinetic-energy cutoff     =      48.0000  Ry
     charge density cutoff     =     192.0000  Ry
     convergence threshold     =      1.0E-12
     mixing beta               =       0.3000
     number of iterations used =            8  plain     mixing
     Exchange-correlation= PBE
                           (   1   4   3   4   0   0   0)

     celldm(1)=   5.499100  celldm(2)=   0.000000  celldm(3)=   0.000000
     celldm(4)=   0.000000  celldm(5)=   0.000000  celldm(6)=   0.000000

     crystal axes: (cart. coord. in units of alat)
               a(1) = (   0.500000   0.500000   0.500000 )  
               a(2) = (  -0.500000   0.500000   0.500000 )  
               a(3) = (  -0.500000  -0.500000   0.500000 )  

     reciprocal axes: (cart. coord. in units 2 pi/alat)
               b(1) = (  1.000000  0.000000  1.000000 )  
               b(2) = ( -1.000000  1.000000  0.000000 )  
               b(3) = (  0.000000 -1.000000  1.000000 )  


     PseudoPot. # 1 for Cr read from file:
     /home/edmondium/Documents/qe-6.7/pseudo/Cr.pbe-spn-rrkjus_psl.1.0.0.UPF
     MD5 check sum: 793d051e4f89dd1e3290b85340a92c0a
     Pseudo is Ultrasoft + core correction, Zval = 14.0
     Generated using "atomic" code by A. Dal Corso v.6.2.2
     Using radial grid of 1183 points,  6 beta functions with: 
                l(1) =   0
                l(2) =   0
                l(3) =   1
                l(4) =   1
                l(5) =   2
                l(6) =   2
     Q(r) pseudized with 0 coefficients 


     atomic species   valence    mass     pseudopotential
        Cr            14.00    51.99610     Cr( 1.00)

     48 Sym. Ops., with inversion, found



   Cartesian axes

     site n.     atom                  positions (alat units)
         1           Cr  tau(   1) = (   0.0000000   0.0000000   0.0000000  )

     number of k points=   145  Marzari-Vanderbilt smearing, width (Ry)=  0.0200

     Number of k-points >= 100: set verbosity='high' to print them.

     Dense  grid:     3781 G-vectors     FFT dimensions: (  24,  24,  24)

     Estimated max dynamical RAM per process >      20.67 MB

     Estimated total dynamical RAM >      41.34 MB

     Check: negative core charge=   -0.000063

     Initial potential from superposition of free atoms

     starting charge   13.99923, renormalised to   14.00000
     Starting wfcs are random

     total cpu time spent up to now is        3.1 secs

     Self-consistent Calculation

     iteration #  1     ecut=    48.00 Ry     beta= 0.30
     CG style diagonalization
     ethr =  1.00E-02,  avg # of iterations =  9.5

     Threshold (ethr) on eigenvalues was too large:
     Diagonalizing with lowered threshold

     CG style diagonalization
     c_bands:  1 eigenvalues not converged
     c_bands:  1 eigenvalues not converged
     ethr =  4.42E-04,  avg # of iterations =  4.3

     total cpu time spent up to now is       29.4 secs

     total energy              =    -174.97401642 Ry
     Harris-Foulkes estimate   =    -175.01336453 Ry
     estimated scf accuracy    <       0.09836229 Ry

     iteration #  2     ecut=    48.00 Ry     beta= 0.30
     CG style diagonalization
     ethr =  7.03E-04,  avg # of iterations =  3.0

     total cpu time spent up to now is       35.3 secs

     total energy              =    -174.99781213 Ry
     Harris-Foulkes estimate   =    -174.99803690 Ry
     estimated scf accuracy    <       0.00327675 Ry

     iteration #  3     ecut=    48.00 Ry     beta= 0.30
     CG style diagonalization
     c_bands:  1 eigenvalues not converged
     ethr =  2.34E-05,  avg # of iterations =  4.0

     total cpu time spent up to now is       43.1 secs

     total energy              =    -174.99935020 Ry
     Harris-Foulkes estimate   =    -174.99939838 Ry
     estimated scf accuracy    <       0.00130470 Ry

     iteration #  4     ecut=    48.00 Ry     beta= 0.30
     CG style diagonalization
     c_bands:  1 eigenvalues not converged
     ethr =  9.32E-06,  avg # of iterations =  3.5

     total cpu time spent up to now is       49.7 secs

     total energy              =    -174.99977291 Ry
     Harris-Foulkes estimate   =    -174.99979168 Ry
     estimated scf accuracy    <       0.00004296 Ry

     iteration #  5     ecut=    48.00 Ry     beta= 0.30
     CG style diagonalization
     c_bands:  1 eigenvalues not converged
     ethr =  3.07E-07,  avg # of iterations =  4.4

     total cpu time spent up to now is       58.5 secs

     total energy              =    -174.99993532 Ry
     Harris-Foulkes estimate   =    -174.99993624 Ry
     estimated scf accuracy    <       0.00000165 Ry

     iteration #  6     ecut=    48.00 Ry     beta= 0.30
     CG style diagonalization
     ethr =  1.18E-08,  avg # of iterations =  3.7

     total cpu time spent up to now is       65.9 secs

     total energy              =    -174.99994228 Ry
     Harris-Foulkes estimate   =    -174.99994310 Ry
     estimated scf accuracy    <       0.00000171 Ry

     iteration #  7     ecut=    48.00 Ry     beta= 0.30
     CG style diagonalization
     ethr =  1.18E-08,  avg # of iterations =  3.1

     total cpu time spent up to now is       72.2 secs

     total energy              =    -174.99994279 Ry
     Harris-Foulkes estimate   =    -174.99994281 Ry
     estimated scf accuracy    <       0.00000005 Ry

     iteration #  8     ecut=    48.00 Ry     beta= 0.30
     CG style diagonalization
     ethr =  3.64E-10,  avg # of iterations =  3.5

     total cpu time spent up to now is       79.2 secs

     total energy              =    -174.99994288 Ry
     Harris-Foulkes estimate   =    -174.99994288 Ry
     estimated scf accuracy    <          1.0E-09 Ry

     iteration #  9     ecut=    48.00 Ry     beta= 0.30
     CG style diagonalization
     ethr =  7.24E-12,  avg # of iterations =  4.3

     total cpu time spent up to now is       87.7 secs

     total energy              =    -174.99994289 Ry
     Harris-Foulkes estimate   =    -174.99994289 Ry
     estimated scf accuracy    <          2.2E-09 Ry

     iteration # 10     ecut=    48.00 Ry     beta= 0.30
     CG style diagonalization
     ethr =  7.24E-12,  avg # of iterations =  3.0

     total cpu time spent up to now is       94.4 secs

     total energy              =    -174.99994289 Ry
     Harris-Foulkes estimate   =    -174.99994289 Ry
     estimated scf accuracy    <          8.4E-11 Ry

     iteration # 11     ecut=    48.00 Ry     beta= 0.30
     CG style diagonalization
     ethr =  6.01E-13,  avg # of iterations =  3.2

     total cpu time spent up to now is      102.2 secs

     End of self-consistent calculation

     Number of k-points >= 100: set verbosity='high' to print the bands.

     the Fermi energy is    18.1757 ev

!    total energy              =    -174.99994289 Ry
     Harris-Foulkes estimate   =    -174.99994289 Ry
     estimated scf accuracy    <          6.1E-13 Ry

     The total energy is the sum of the following terms:

     one-electron contribution =     -60.74290543 Ry
     hartree contribution      =      37.69129845 Ry
     xc contribution           =     -22.23802531 Ry
     ewald contribution        =    -129.71027196 Ry
     smearing contrib. (-TS)   =      -0.00003865 Ry

     convergence has been achieved in  11 iterations

     Writing output data file /home/edmondium/Documents/qe-6.7/tempdir/pwscf.save/

     init_run     :      1.89s CPU      1.95s WALL (       1 calls)
     electrons    :     91.23s CPU     99.09s WALL (       1 calls)

     Called by init_run:
     wfcinit      :      1.49s CPU      1.55s WALL (       1 calls)
     potinit      :      0.01s CPU      0.01s WALL (       1 calls)
     hinit0       :      0.37s CPU      0.37s WALL (       1 calls)

     Called by electrons:
     c_bands      :     83.21s CPU     90.40s WALL (      12 calls)
     sum_band     :      7.84s CPU      8.49s WALL (      12 calls)
     v_of_rho     :      0.09s CPU      0.09s WALL (      12 calls)
     newd         :      0.10s CPU      0.10s WALL (      12 calls)
     mix_rho      :      0.01s CPU      0.01s WALL (      12 calls)

     Called by c_bands:
     init_us_2    :      0.54s CPU      0.59s WALL (    3625 calls)
     ccgdiagg     :     67.39s CPU     73.26s WALL (    1740 calls)
     wfcrot       :     16.74s CPU     18.07s WALL (    1595 calls)

     Called by sum_band:
     sum_band:bec :      0.05s CPU      0.05s WALL (    1740 calls)
     addusdens    :      0.10s CPU      0.11s WALL (      12 calls)

     Called by *cgdiagg:
     h_psi        :     62.44s CPU     67.83s WALL (  145001 calls)
     s_psi        :      5.11s CPU      5.59s WALL (  288407 calls)
     cdiaghg      :      0.83s CPU      0.88s WALL (    1595 calls)

     Called by h_psi:
     h_psi:calbec :      4.30s CPU      4.68s WALL (  145001 calls)
     vloc_psi     :     54.71s CPU     59.45s WALL (  145001 calls)
     add_vuspsi   :      2.65s CPU      2.91s WALL (  145001 calls)
     hs_1psi      :     52.75s CPU     57.29s WALL (  143406 calls)
     s_1psi       :      6.08s CPU      6.56s WALL (  143406 calls)

     General routines
     calbec       :      7.36s CPU      8.12s WALL (  290147 calls)
     fft          :      0.03s CPU      0.03s WALL (     133 calls)
     ffts         :      0.00s CPU      0.00s WALL (      12 calls)
     fftw         :     53.03s CPU     57.61s WALL (  410062 calls)

     Parallel routines
     fft_scatt_xy :      7.61s CPU      8.24s WALL (  410207 calls)
     fft_scatt_yz :     10.14s CPU     11.13s WALL (  410207 calls)

     PWSCF        :   1m34.38s CPU   1m42.40s WALL


   This run was terminated on:  20: 1:43  13Jan2021            

=------------------------------------------------------------------------------=
   JOB DONE.
=------------------------------------------------------------------------------=
