
     Program PWSCF v.6.5 starts on 31Jan2021 at 14: 1:52 

     This program is part of the open-source Quantum ESPRESSO suite
     for quantum simulation of materials; please cite
         "P. Giannozzi et al., J. Phys.:Condens. Matter 21 395502 (2009);
         "P. Giannozzi et al., J. Phys.:Condens. Matter 29 465901 (2017);
          URL http://www.quantum-espresso.org", 
     in publications or presentations arising from this work. More details at
     http://www.quantum-espresso.org/quote

     Parallel version (MPI), running on     4 processors

     MPI processes distributed on     1 nodes
     R & G space division:  proc/nbgrp/npool/nimage =       4
     Waiting for input...
     Reading input from standard input

     Current dimensions of program PWSCF are:
     Max number of different atomic species (ntypx) = 10
     Max number of k-points (npk) =  40000
     Max angular momentum in pseudopotentials (lmaxx) =  3
               file Cr.pbe-spn-rrkjus_psl.1.0.0.UPF: wavefunction(s)  3P renormalized

     Subspace diagonalization in iterative solution of the eigenvalue problem:
     a serial algorithm will be used


     Parallelization info
     --------------------
     sticks:   dense  smooth     PW     G-vecs:    dense   smooth      PW
     Min          83      83     25                  945      945     170
     Max          84      84     26                  946      946     171
     Sum         333     333    103                 3781     3781     683



     bravais-lattice index     =            3
     lattice parameter (alat)  =       5.4991  a.u.
     unit-cell volume          =      83.1467 (a.u.)^3
     number of atoms/cell      =            1
     number of atomic types    =            1
     number of electrons       =        14.00
     number of Kohn-Sham states=           25
     kinetic-energy cutoff     =      48.0000  Ry
     charge density cutoff     =     192.0000  Ry
     convergence threshold     =      1.0E-12
     mixing beta               =       0.3000
     number of iterations used =            8  plain     mixing
     Exchange-correlation= PBE
                           (   1   4   3   4   0   0   0)

     celldm(1)=   5.499100  celldm(2)=   0.000000  celldm(3)=   0.000000
     celldm(4)=   0.000000  celldm(5)=   0.000000  celldm(6)=   0.000000

     crystal axes: (cart. coord. in units of alat)
               a(1) = (   0.500000   0.500000   0.500000 )  
               a(2) = (  -0.500000   0.500000   0.500000 )  
               a(3) = (  -0.500000  -0.500000   0.500000 )  

     reciprocal axes: (cart. coord. in units 2 pi/alat)
               b(1) = (  1.000000  0.000000  1.000000 )  
               b(2) = ( -1.000000  1.000000  0.000000 )  
               b(3) = (  0.000000 -1.000000  1.000000 )  


     PseudoPot. # 1 for Cr read from file:
     /home/edmondium/quantum/pseudo/Cr.pbe-spn-rrkjus_psl.1.0.0.UPF
     MD5 check sum: 793d051e4f89dd1e3290b85340a92c0a
     Pseudo is Ultrasoft + core correction, Zval = 14.0
     Generated using "atomic" code by A. Dal Corso v.6.2.2
     Using radial grid of 1183 points,  6 beta functions with: 
                l(1) =   0
                l(2) =   0
                l(3) =   1
                l(4) =   1
                l(5) =   2
                l(6) =   2
     Q(r) pseudized with 0 coefficients 


     atomic species   valence    mass     pseudopotential
        Cr            14.00    51.99610     Cr( 1.00)

     48 Sym. Ops., with inversion, found



   Cartesian axes

     site n.     atom                  positions (alat units)
         1           Cr  tau(   1) = (   0.0000000   0.0000000   0.0000000  )

     number of k points=   145  Marzari-Vanderbilt smearing, width (Ry)=  0.0200

     Number of k-points >= 100: set verbosity='high' to print them.

     Dense  grid:     3781 G-vectors     FFT dimensions: (  24,  24,  24)

     Estimated max dynamical RAM per process >      10.80 MB

     Estimated total dynamical RAM >      43.19 MB

     Check: negative core charge=   -0.000063

     Initial potential from superposition of free atoms

     starting charge   13.99923, renormalised to   14.00000
     Starting wfcs are random

     total cpu time spent up to now is        1.3 secs

     Self-consistent Calculation

     iteration #  1     ecut=    48.00 Ry     beta= 0.30
     CG style diagonalization
     ethr =  1.00E-02,  avg # of iterations =  9.5

     Threshold (ethr) on eigenvalues was too large:
     Diagonalizing with lowered threshold

     CG style diagonalization
     c_bands:  1 eigenvalues not converged
     ethr =  4.89E-04,  avg # of iterations =  4.1

     total cpu time spent up to now is       11.1 secs

     total energy              =    -174.97229308 Ry
     Harris-Foulkes estimate   =    -175.01198527 Ry
     estimated scf accuracy    <       0.09877128 Ry

     iteration #  2     ecut=    48.00 Ry     beta= 0.30
     CG style diagonalization
     ethr =  7.06E-04,  avg # of iterations =  3.0

     total cpu time spent up to now is       13.2 secs

     total energy              =    -174.99775586 Ry
     Harris-Foulkes estimate   =    -174.99794275 Ry
     estimated scf accuracy    <       0.00328246 Ry

     iteration #  3     ecut=    48.00 Ry     beta= 0.30
     CG style diagonalization
     c_bands:  1 eigenvalues not converged
     c_bands:  1 eigenvalues not converged
     c_bands:  1 eigenvalues not converged
     ethr =  2.34E-05,  avg # of iterations =  4.1

     total cpu time spent up to now is       16.1 secs

     total energy              =    -174.99929991 Ry
     Harris-Foulkes estimate   =    -174.99933799 Ry
     estimated scf accuracy    <       0.00135301 Ry

     iteration #  4     ecut=    48.00 Ry     beta= 0.30
     CG style diagonalization
     c_bands:  1 eigenvalues not converged
     ethr =  9.66E-06,  avg # of iterations =  3.5

     total cpu time spent up to now is       18.5 secs

     total energy              =    -174.99977555 Ry
     Harris-Foulkes estimate   =    -174.99977865 Ry
     estimated scf accuracy    <       0.00000745 Ry

     iteration #  5     ecut=    48.00 Ry     beta= 0.30
     CG style diagonalization
     c_bands:  1 eigenvalues not converged
     c_bands:  1 eigenvalues not converged
     ethr =  5.32E-08,  avg # of iterations =  5.0

     total cpu time spent up to now is       22.0 secs

     total energy              =    -174.99994165 Ry
     Harris-Foulkes estimate   =    -174.99994230 Ry
     estimated scf accuracy    <       0.00000131 Ry

     iteration #  6     ecut=    48.00 Ry     beta= 0.30
     CG style diagonalization
     ethr =  9.33E-09,  avg # of iterations =  3.2

     total cpu time spent up to now is       24.2 secs

     total energy              =    -174.99994242 Ry
     Harris-Foulkes estimate   =    -174.99994306 Ry
     estimated scf accuracy    <       0.00000122 Ry

     iteration #  7     ecut=    48.00 Ry     beta= 0.30
     CG style diagonalization
     ethr =  8.68E-09,  avg # of iterations =  3.1

     total cpu time spent up to now is       26.3 secs

     total energy              =    -174.99994282 Ry
     Harris-Foulkes estimate   =    -174.99994286 Ry
     estimated scf accuracy    <       0.00000013 Ry

     iteration #  8     ecut=    48.00 Ry     beta= 0.30
     CG style diagonalization
     ethr =  8.98E-10,  avg # of iterations =  3.2

     total cpu time spent up to now is       28.5 secs

     total energy              =    -174.99994287 Ry
     Harris-Foulkes estimate   =    -174.99994287 Ry
     estimated scf accuracy    <          6.1E-09 Ry

     iteration #  9     ecut=    48.00 Ry     beta= 0.30
     CG style diagonalization
     ethr =  4.39E-11,  avg # of iterations =  3.9

     total cpu time spent up to now is       31.2 secs

     total energy              =    -174.99994289 Ry
     Harris-Foulkes estimate   =    -174.99994289 Ry
     estimated scf accuracy    <          9.6E-09 Ry

     iteration # 10     ecut=    48.00 Ry     beta= 0.30
     CG style diagonalization
     ethr =  4.39E-11,  avg # of iterations =  3.1

     total cpu time spent up to now is       33.3 secs

     total energy              =    -174.99994289 Ry
     Harris-Foulkes estimate   =    -174.99994289 Ry
     estimated scf accuracy    <          7.2E-09 Ry

     iteration # 11     ecut=    48.00 Ry     beta= 0.30
     CG style diagonalization
     ethr =  4.39E-11,  avg # of iterations =  3.0

     total cpu time spent up to now is       35.4 secs

     total energy              =    -174.99994289 Ry
     Harris-Foulkes estimate   =    -174.99994289 Ry
     estimated scf accuracy    <          5.3E-10 Ry

     iteration # 12     ecut=    48.00 Ry     beta= 0.30
     CG style diagonalization
     ethr =  3.78E-12,  avg # of iterations =  3.1

     total cpu time spent up to now is       37.5 secs

     total energy              =    -174.99994289 Ry
     Harris-Foulkes estimate   =    -174.99994289 Ry
     estimated scf accuracy    <          2.8E-10 Ry

     iteration # 13     ecut=    48.00 Ry     beta= 0.30
     CG style diagonalization
     ethr =  1.98E-12,  avg # of iterations =  3.1

     total cpu time spent up to now is       39.7 secs

     total energy              =    -174.99994289 Ry
     Harris-Foulkes estimate   =    -174.99994289 Ry
     estimated scf accuracy    <          2.2E-10 Ry

     iteration # 14     ecut=    48.00 Ry     beta= 0.30
     CG style diagonalization
     ethr =  1.60E-12,  avg # of iterations =  3.0

     total cpu time spent up to now is       41.8 secs

     total energy              =    -174.99994289 Ry
     Harris-Foulkes estimate   =    -174.99994289 Ry
     estimated scf accuracy    <          7.7E-11 Ry

     iteration # 15     ecut=    48.00 Ry     beta= 0.30
     CG style diagonalization
     ethr =  5.49E-13,  avg # of iterations =  3.0

     total cpu time spent up to now is       43.9 secs

     total energy              =    -174.99994289 Ry
     Harris-Foulkes estimate   =    -174.99994289 Ry
     estimated scf accuracy    <          5.8E-11 Ry

     iteration # 16     ecut=    48.00 Ry     beta= 0.30
     CG style diagonalization
     ethr =  4.14E-13,  avg # of iterations =  3.0

     total cpu time spent up to now is       46.0 secs

     total energy              =    -174.99994289 Ry
     Harris-Foulkes estimate   =    -174.99994289 Ry
     estimated scf accuracy    <          5.8E-11 Ry

     iteration # 17     ecut=    48.00 Ry     beta= 0.30
     CG style diagonalization
     ethr =  4.12E-13,  avg # of iterations =  3.0

     total cpu time spent up to now is       48.1 secs

     total energy              =    -174.99994289 Ry
     Harris-Foulkes estimate   =    -174.99994289 Ry
     estimated scf accuracy    <          2.8E-11 Ry

     iteration # 18     ecut=    48.00 Ry     beta= 0.30
     CG style diagonalization
     ethr =  2.03E-13,  avg # of iterations =  3.0

     total cpu time spent up to now is       50.1 secs

     total energy              =    -174.99994289 Ry
     Harris-Foulkes estimate   =    -174.99994289 Ry
     estimated scf accuracy    <          1.5E-12 Ry

     iteration # 19     ecut=    48.00 Ry     beta= 0.30
     CG style diagonalization
     ethr =  1.00E-13,  avg # of iterations =  3.0

     total cpu time spent up to now is       52.2 secs

     End of self-consistent calculation

     Number of k-points >= 100: set verbosity='high' to print the bands.

     the Fermi energy is    18.1757 ev

!    total energy              =    -174.99994289 Ry
     Harris-Foulkes estimate   =    -174.99994289 Ry
     estimated scf accuracy    <          5.8E-15 Ry

     The total energy is the sum of the following terms:

     one-electron contribution =     -60.74290383 Ry
     hartree contribution      =      37.69129659 Ry
     xc contribution           =     -22.23802504 Ry
     ewald contribution        =    -129.71027196 Ry
     smearing contrib. (-TS)   =      -0.00003865 Ry

     convergence has been achieved in  19 iterations

     Writing output data file /home/edmondium/quantum/tempdir/pwscf.save/

     init_run     :      0.59s CPU      0.64s WALL (       1 calls)
     electrons    :     47.12s CPU     50.91s WALL (       1 calls)

     Called by init_run:
     wfcinit      :      0.49s CPU      0.54s WALL (       1 calls)
     potinit      :      0.00s CPU      0.00s WALL (       1 calls)
     hinit0       :      0.09s CPU      0.09s WALL (       1 calls)

     Called by electrons:
     c_bands      :     42.56s CPU     46.14s WALL (      20 calls)
     sum_band     :      4.45s CPU      4.66s WALL (      20 calls)
     v_of_rho     :      0.04s CPU      0.04s WALL (      20 calls)
     newd         :      0.06s CPU      0.07s WALL (      20 calls)
     mix_rho      :      0.01s CPU      0.01s WALL (      20 calls)

     Called by c_bands:
     init_us_2    :      0.22s CPU      0.23s WALL (    5945 calls)
     ccgdiagg     :     34.19s CPU     37.11s WALL (    2900 calls)
     wfcrot       :      8.60s CPU      9.28s WALL (    2755 calls)

     Called by sum_band:
     sum_band:bec :      0.02s CPU      0.02s WALL (    2900 calls)
     addusdens    :      0.06s CPU      0.06s WALL (      20 calls)

     Called by *cgdiagg:
     h_psi        :     32.41s CPU     35.14s WALL (  202124 calls)
     s_psi        :      1.29s CPU      1.45s WALL (  401493 calls)
     cdiaghg      :      0.64s CPU      0.69s WALL (    2755 calls)

     Called by h_psi:
     h_psi:calbec :      1.98s CPU      2.14s WALL (  202124 calls)
     vloc_psi     :     28.28s CPU     30.65s WALL (  202124 calls)
     add_vuspsi   :      1.46s CPU      1.60s WALL (  202124 calls)
     hs_1psi      :     26.66s CPU     28.91s WALL (  199369 calls)
     s_1psi       :      2.55s CPU      2.75s WALL (  199369 calls)

     General routines
     calbec       :      2.84s CPU      3.12s WALL (  404393 calls)
     fft          :      0.02s CPU      0.02s WALL (     221 calls)
     ffts         :      0.00s CPU      0.00s WALL (      20 calls)
     fftw         :     28.68s CPU     30.94s WALL (  608988 calls)

     Parallel routines
     fft_scatt_xy :      3.14s CPU      3.39s WALL (  609229 calls)
     fft_scatt_yz :      9.31s CPU      9.97s WALL (  609229 calls)

     PWSCF        :     48.43s CPU     52.32s WALL


   This run was terminated on:  14: 2:45  31Jan2021            

=------------------------------------------------------------------------------=
   JOB DONE.
=------------------------------------------------------------------------------=
