
     Program PWSCF v.6.5 starts on 31Jan2021 at 13:57: 1 

     This program is part of the open-source Quantum ESPRESSO suite
     for quantum simulation of materials; please cite
         "P. Giannozzi et al., J. Phys.:Condens. Matter 21 395502 (2009);
         "P. Giannozzi et al., J. Phys.:Condens. Matter 29 465901 (2017);
          URL http://www.quantum-espresso.org", 
     in publications or presentations arising from this work. More details at
     http://www.quantum-espresso.org/quote

     Parallel version (MPI), running on     4 processors

     MPI processes distributed on     1 nodes
     R & G space division:  proc/nbgrp/npool/nimage =       4
     Waiting for input...
     Reading input from standard input

     Current dimensions of program PWSCF are:
     Max number of different atomic species (ntypx) = 10
     Max number of k-points (npk) =  40000
     Max angular momentum in pseudopotentials (lmaxx) =  3

     Atomic positions and unit cell read from directory:
     /home/edmondium/quantum/tempdir/pwscf.save/                                                                                                                                                                                                                     


     Subspace diagonalization in iterative solution of the eigenvalue problem:
     a serial algorithm will be used


     Parallelization info
     --------------------
     sticks:   dense  smooth     PW     G-vecs:    dense   smooth      PW
     Min          49      49     22                  451      451     152
     Max          50      50     23                  453      453     153
     Sum         199     199     91                 1807     1807     609



     bravais-lattice index     =            2
     lattice parameter (alat)  =       6.8220  a.u.
     unit-cell volume          =      79.3734 (a.u.)^3
     number of atoms/cell      =            1
     number of atomic types    =            1
     number of electrons       =        11.00
     number of Kohn-Sham states=           28
     kinetic-energy cutoff     =      30.0000  Ry
     charge density cutoff     =     120.0000  Ry
     Exchange-correlation= SLA PZ NOGX NOGC
                           (   1   1   0   0   0   0   0)

     celldm(1)=   6.822000  celldm(2)=   0.000000  celldm(3)=   0.000000
     celldm(4)=   0.000000  celldm(5)=   0.000000  celldm(6)=   0.000000

     crystal axes: (cart. coord. in units of alat)
               a(1) = (  -0.500000   0.000000   0.500000 )  
               a(2) = (   0.000000   0.500000   0.500000 )  
               a(3) = (  -0.500000   0.500000   0.000000 )  

     reciprocal axes: (cart. coord. in units 2 pi/alat)
               b(1) = ( -1.000000 -1.000000  1.000000 )  
               b(2) = (  1.000000  1.000000  1.000000 )  
               b(3) = ( -1.000000  1.000000 -1.000000 )  


     PseudoPot. # 1 for Cu read from file:
     /home/edmondium/quantum/pseudo/Cu.pz-n-van_ak.UPF
     MD5 check sum: 3309a1728b6661467a77298863cc3c06
     Pseudo is Ultrasoft + core correction, Zval = 11.0
     Generated by new atomic code, or converted to UPF format
     Using radial grid of  867 points,  6 beta functions with: 
                l(1) =   0
                l(2) =   0
                l(3) =   1
                l(4) =   1
                l(5) =   2
                l(6) =   2
     Q(r) pseudized with  8 coefficients,  rinner =    1.400   1.400   1.400
                                                       1.400   1.400

     atomic species   valence    mass     pseudopotential
        Cu            11.00    63.54600     Cu( 1.00)

     No symmetry found



   Cartesian axes

     site n.     atom                  positions (alat units)
         1           Cu  tau(   1) = (   0.0000000   0.0000000   0.0000000  )

     number of k points=   511

     Number of k-points >= 100: set verbosity='high' to print them.

     Dense  grid:     1807 G-vectors     FFT dimensions: (  18,  18,  18)

     Estimated max dynamical RAM per process >       2.46 MB

     Estimated total dynamical RAM >       9.83 MB

     The potential is recalculated from file :
     /home/edmondium/quantum/tempdir/pwscf.save/charge-density

     Starting wfcs are random

     Band Structure Calculation
     CG style diagonalization
     c_bands:  1 eigenvalues not converged
     c_bands:  1 eigenvalues not converged

     ethr =  9.09E-13,  avg # of iterations = 43.9

     total cpu time spent up to now is       82.4 secs

     End of band structure calculation

     Number of k-points >= 100: set verbosity='high' to print the bands.

     highest occupied, lowest unoccupied level (ev):    10.7632    9.9994



               ==================================================
                            POLARIZATION CALCULATION
                         !!! NOT THOROUGHLY TESTED !!!
               --------------------------------------------------


                     K-POINTS STRINGS USED IN CALCULATIONS
                     ~~~~~~~~~~~~~~~~~~~~~~~~~~~~~~~~~~~~~

       G-vector along string (2 pi/a): -1.00000  1.00000 -1.00000
       Modulus of the vector (1/bohr):  1.59525
       Number of k-points per string:   7
       Number of different strings  :  73


                               IONIC POLARIZATION
                               ~~~~~~~~~~~~~~~~~~

  ============================================================================
    Ion    Species    Charge              Position                Phase
  ----------------------------------------------------------------------------
     1        Cu      11.000       0.0000  0.0000  0.0000     0.00000 (mod 1)
  ----------------------------------------------------------------------------
                                               IONIC PHASE:   0.00000 (mod 1)
  ============================================================================


                            ELECTRONIC POLARIZATION
                            ~~~~~~~~~~~~~~~~~~~~~~~

  ============================================================================
    String     Weight      First k-point in string         Phase
  ----------------------------------------------------------------------------
       1      0.003906      0.0000  0.0000  0.0000    -0.05049
       2      0.015625      0.0625  0.0625  0.0625    -0.72576
       3      0.015625      0.1250  0.1250  0.1250     0.87648
       4      0.015625      0.1875  0.1875  0.1875     0.57865
       5      0.015625      0.2500  0.2500  0.2500     0.41381
       6      0.015625      0.3125  0.3125  0.3125     0.39160
       7      0.015625      0.3750  0.3750  0.3750    -1.00000
       8      0.015625      0.4375  0.4375  0.4375     0.00000
       9      0.007812     -0.5000 -0.5000 -0.5000     0.00000
      10      0.007812      0.0000  0.0000  0.1250     0.07909
      11      0.015625      0.0625  0.0625  0.1875     0.00000
      12      0.015625      0.1250  0.1250  0.2500    -0.00000
      13      0.015625      0.1875  0.1875  0.3125     0.00000
      14      0.015625      0.2500  0.2500  0.3750    -0.00000
      15      0.015625      0.3125  0.3125  0.4375     0.00000
      16      0.015625      0.3750  0.3750  0.5000    -0.00000
      17      0.015625     -0.5625 -0.5625 -0.4375    -0.00000
      18      0.015625     -0.5000 -0.5000 -0.3750    -0.00000
      19      0.015625     -0.4375 -0.4375 -0.3125     0.00000
      20      0.015625     -0.3750 -0.3750 -0.2500     0.00006
      21      0.015625     -0.3125 -0.3125 -0.1875     0.00000
      22      0.015625     -0.2500 -0.2500 -0.1250     0.00000
      23      0.015625     -0.1875 -0.1875 -0.0625     0.00000
      24      0.007812     -0.1250 -0.1250  0.0000    -0.00000
      25      0.007812      0.0000  0.0000  0.2500     0.54829
      26      0.015625      0.0625  0.0625  0.3125     0.00000
      27      0.015625      0.1250  0.1250  0.3750    -0.00000
      28      0.015625      0.1875  0.1875  0.4375    -0.00000
      29      0.015625      0.2500  0.2500  0.5000    -0.00000
      30      0.015625      0.3125  0.3125  0.5625    -0.00000
      31      0.015625     -0.6250 -0.6250 -0.3750    -0.00000
      32      0.015625     -0.5625 -0.5625 -0.3125    -0.00000
      33      0.015625     -0.5000 -0.5000 -0.2500    -0.00000
      34      0.015625     -0.4375 -0.4375 -0.1875     0.00000
      35      0.015625     -0.3750 -0.3750 -0.1250     0.00000
      36      0.015625     -0.3125 -0.3125 -0.0625     0.00000
      37      0.007812     -0.2500 -0.2500  0.0000     0.00000
      38      0.007812      0.0000  0.0000  0.3750     0.61324
      39      0.015625      0.0625  0.0625  0.4375    -0.00000
      40      0.015625      0.1250  0.1250  0.5000    -0.00000
      41      0.015625      0.1875  0.1875  0.5625    -0.00000
      42      0.015625      0.2500  0.2500  0.6250    -0.00000
      43      0.015625     -0.6875 -0.6875 -0.3125     0.00000
      44      0.015625     -0.6250 -0.6250 -0.2500     0.00000
      45      0.015625     -0.5625 -0.5625 -0.1875    -0.00000
      46      0.015625     -0.5000 -0.5000 -0.1250    -0.00000
      47      0.015625     -0.4375 -0.4375 -0.0625    -0.00000
      48      0.007812     -0.3750 -0.3750  0.0000    -0.00000
      49      0.007812      0.0000  0.0000  0.5000    -0.92394
      50      0.015625      0.0625  0.0625  0.5625     0.00000
      51      0.015625      0.1250  0.1250  0.6250    -0.00000
      52      0.015625      0.1875  0.1875  0.6875     0.00000
      53      0.015625     -0.7500 -0.7500 -0.2500    -0.00000
      54      0.015625     -0.6875 -0.6875 -0.1875     0.00000
      55      0.015625     -0.6250 -0.6250 -0.1250    -0.00000
      56      0.015625     -0.5625 -0.5625 -0.0625     0.00000
      57      0.007812     -0.5000 -0.5000  0.0000    -0.00000
      58      0.007812      0.0000  0.0000  0.6250     0.66277
      59      0.015625      0.0625  0.0625  0.6875     0.00000
      60      0.015625      0.1250  0.1250  0.7500     0.00000
      61      0.015625     -0.8125 -0.8125 -0.1875    -0.00000
      62      0.015625     -0.7500 -0.7500 -0.1250    -0.00000
      63      0.015625     -0.6875 -0.6875 -0.0625    -0.00000
      64      0.007812     -0.6250 -0.6250  0.0000     0.00000
      65      0.007812      0.0000  0.0000  0.7500     0.24647
      66      0.015625      0.0625  0.0625  0.8125     0.00000
      67      0.015625     -0.8750 -0.8750 -0.1250    -0.00000
      68      0.015625     -0.8125 -0.8125 -0.0625     0.00000
      69      0.007812     -0.7500 -0.7500  0.0000     0.00000
      70      0.007812      0.0000  0.0000  0.8750    -0.00000
      71      0.015625     -0.9375 -0.9375 -0.0625     0.00000
      72      0.007812     -0.8750 -0.8750  0.0000     0.00000
      73      0.003906      0.0000  0.0000 -1.0000    -0.00000
  ----------------------------------------------------------------------------
                                          ELECTRONIC PHASE:   0.01774
  ============================================================================


                               SUMMARY OF PHASES
                               ~~~~~~~~~~~~~~~~~

                          Ionic Phase:  0.00000
                     Electronic Phase:  0.01774
                          TOTAL PHASE:  0.01774 MOD_TOT: 1


                             VALUES OF POLARIZATION
                             ~~~~~~~~~~~~~~~~~~~~~~

        The calculation of phases done along the direction of vector 3
        of the reciprocal lattice gives the following contribution to
        the polarization vector (in different units, and being Omega
        the volume of the unit cell):

           P =   0.0855609  (mod   4.8238825)  (e/Omega).bohr

           P =   0.0010780  (mod   0.0607745)  e/bohr^2

           P =   0.0616285  (mod   3.4745842)  C/m^2

        The polarization direction is:  (-0.70711 , 0.70711 , 0.00000 )


               ==================================================



     Writing output data file /home/edmondium/quantum/tempdir/pwscf.save/

     init_run     :      0.06s CPU      0.06s WALL (       1 calls)
     electrons    :     72.04s CPU     82.03s WALL (       1 calls)

     Called by init_run:
     wfcinit      :      0.00s CPU      0.00s WALL (       1 calls)
     potinit      :      0.00s CPU      0.00s WALL (       1 calls)
     hinit0       :      0.05s CPU      0.05s WALL (       1 calls)

     Called by electrons:
     c_bands      :     71.94s CPU     81.92s WALL (       1 calls)
     v_of_rho     :      0.00s CPU      0.00s WALL (       1 calls)
     newd         :      0.00s CPU      0.00s WALL (       1 calls)

     Called by c_bands:
     init_us_2    :      0.03s CPU      0.03s WALL (    1387 calls)
     ccgdiagg     :     68.44s CPU     77.94s WALL (    1573 calls)
     wfcrot       :      3.39s CPU      3.87s WALL (    1573 calls)

     Called by sum_band:

     Called by *cgdiagg:
     h_psi        :     47.00s CPU     53.51s WALL (  582758 calls)
     s_psi        :      3.06s CPU      3.58s WALL ( 1163943 calls)
     cdiaghg      :      0.48s CPU      0.54s WALL (    1573 calls)

     Called by h_psi:
     h_psi:calbec :      4.25s CPU      4.86s WALL (  582758 calls)
     vloc_psi     :     38.15s CPU     43.43s WALL (  582758 calls)
     add_vuspsi   :      2.71s CPU      3.10s WALL (  582758 calls)
     hs_1psi      :     48.98s CPU     55.72s WALL (  581185 calls)
     s_1psi       :      6.44s CPU      7.28s WALL (  581185 calls)

     General routines
     calbec       :      5.78s CPU      6.68s WALL ( 1164819 calls)
     fft          :      0.00s CPU      0.00s WALL (       5 calls)
     fftw         :     33.95s CPU     38.61s WALL ( 1250458 calls)
     davcio       :      0.03s CPU      0.04s WALL (    1898 calls)

     Parallel routines
     fft_scatt_xy :      3.50s CPU      3.98s WALL ( 1250463 calls)
     fft_scatt_yz :     10.31s CPU     11.73s WALL ( 1250463 calls)

     PWSCF        :   1m12.74s CPU   1m22.83s WALL


   This run was terminated on:  13:58:23  31Jan2021            

=------------------------------------------------------------------------------=
   JOB DONE.
=------------------------------------------------------------------------------=
