
     Program PWSCF v.6.5 starts on  1Jan2021 at 19:16: 6 

     This program is part of the open-source Quantum ESPRESSO suite
     for quantum simulation of materials; please cite
         "P. Giannozzi et al., J. Phys.:Condens. Matter 21 395502 (2009);
         "P. Giannozzi et al., J. Phys.:Condens. Matter 29 465901 (2017);
          URL http://www.quantum-espresso.org", 
     in publications or presentations arising from this work. More details at
     http://www.quantum-espresso.org/quote

     Parallel version (MPI), running on     2 processors

     MPI processes distributed on     1 nodes
     R & G space division:  proc/nbgrp/npool/nimage =       2
     Waiting for input...
     Reading input from standard input

     Current dimensions of program PWSCF are:
     Max number of different atomic species (ntypx) = 10
     Max number of k-points (npk) =  40000
     Max angular momentum in pseudopotentials (lmaxx) =  3

     Subspace diagonalization in iterative solution of the eigenvalue problem:
     a serial algorithm will be used


     Parallelization info
     --------------------
     sticks:   dense  smooth     PW     G-vecs:    dense   smooth      PW
     Min          99      99     36                  903      903     205
     Max         100     100     37                  904      904     206
     Sum         199     199     73                 1807     1807     411



     bravais-lattice index     =            2
     lattice parameter (alat)  =       6.8220  a.u.
     unit-cell volume          =      79.3734 (a.u.)^3
     number of atoms/cell      =            1
     number of atomic types    =            1
     number of electrons       =        11.00
     number of Kohn-Sham states=           25
     kinetic-energy cutoff     =      30.0000  Ry
     charge density cutoff     =     120.0000  Ry
     convergence threshold     =      1.0E-12
     mixing beta               =       0.3000
     number of iterations used =            8  plain     mixing
     Exchange-correlation= SLA PZ NOGX NOGC
                           (   1   1   0   0   0   0   0)

     celldm(1)=   6.822000  celldm(2)=   0.000000  celldm(3)=   0.000000
     celldm(4)=   0.000000  celldm(5)=   0.000000  celldm(6)=   0.000000

     crystal axes: (cart. coord. in units of alat)
               a(1) = (  -0.500000   0.000000   0.500000 )  
               a(2) = (   0.000000   0.500000   0.500000 )  
               a(3) = (  -0.500000   0.500000   0.000000 )  

     reciprocal axes: (cart. coord. in units 2 pi/alat)
               b(1) = ( -1.000000 -1.000000  1.000000 )  
               b(2) = (  1.000000  1.000000  1.000000 )  
               b(3) = ( -1.000000  1.000000 -1.000000 )  


     PseudoPot. # 1 for Cu read from file:
     /home/edmondium/Documents/qe-6.7/pseudo/Cu.pz-n-van_ak.UPF
     MD5 check sum: 3309a1728b6661467a77298863cc3c06
     Pseudo is Ultrasoft + core correction, Zval = 11.0
     Generated by new atomic code, or converted to UPF format
     Using radial grid of  867 points,  6 beta functions with: 
                l(1) =   0
                l(2) =   0
                l(3) =   1
                l(4) =   1
                l(5) =   2
                l(6) =   2
     Q(r) pseudized with  8 coefficients,  rinner =    1.400   1.400   1.400
                                                       1.400   1.400

     atomic species   valence    mass     pseudopotential
        Cu            11.00    63.54600     Cu( 1.00)

     48 Sym. Ops., with inversion, found



   Cartesian axes

     site n.     atom                  positions (alat units)
         1           Cu  tau(   1) = (   0.0000000   0.0000000   0.0000000  )

     number of k points=   145  Marzari-Vanderbilt smearing, width (Ry)=  0.0200

     Number of k-points >= 100: set verbosity='high' to print them.

     Dense  grid:     1807 G-vectors     FFT dimensions: (  18,  18,  18)

     Estimated max dynamical RAM per process >      10.27 MB

     Estimated total dynamical RAM >      20.54 MB

     Initial potential from superposition of free atoms

     starting charge   10.99145, renormalised to   11.00000
     Starting wfcs are random

     total cpu time spent up to now is        1.6 secs

     Self-consistent Calculation

     iteration #  1     ecut=    30.00 Ry     beta= 0.30
     CG style diagonalization
     c_bands:  1 eigenvalues not converged
     c_bands:  1 eigenvalues not converged
     c_bands:  1 eigenvalues not converged
     c_bands:  1 eigenvalues not converged
     c_bands:  1 eigenvalues not converged
     c_bands:  1 eigenvalues not converged
     c_bands:  1 eigenvalues not converged
     c_bands:  1 eigenvalues not converged
     c_bands:  1 eigenvalues not converged
     c_bands:  1 eigenvalues not converged
     c_bands:  1 eigenvalues not converged
     ethr =  1.00E-02,  avg # of iterations =  9.1

     total cpu time spent up to now is       12.2 secs

     total energy              =    -120.99288805 Ry
     Harris-Foulkes estimate   =    -121.06158909 Ry
     estimated scf accuracy    <       0.15157715 Ry

     iteration #  2     ecut=    30.00 Ry     beta= 0.30
     CG style diagonalization
     ethr =  1.38E-03,  avg # of iterations =  3.2

     total cpu time spent up to now is       16.0 secs

     total energy              =    -121.11802353 Ry
     Harris-Foulkes estimate   =    -121.12383515 Ry
     estimated scf accuracy    <       0.01574406 Ry

     iteration #  3     ecut=    30.00 Ry     beta= 0.30
     CG style diagonalization
     ethr =  1.43E-04,  avg # of iterations =  3.2

     total cpu time spent up to now is       19.6 secs

     total energy              =    -121.12127144 Ry
     Harris-Foulkes estimate   =    -121.12138025 Ry
     estimated scf accuracy    <       0.00025704 Ry

     iteration #  4     ecut=    30.00 Ry     beta= 0.30
     CG style diagonalization
     c_bands:  1 eigenvalues not converged
     c_bands:  1 eigenvalues not converged
     ethr =  2.34E-06,  avg # of iterations =  4.0

     total cpu time spent up to now is       24.2 secs

     total energy              =    -121.12132418 Ry
     Harris-Foulkes estimate   =    -121.12134646 Ry
     estimated scf accuracy    <       0.00005716 Ry

     iteration #  5     ecut=    30.00 Ry     beta= 0.30
     CG style diagonalization
     c_bands:  1 eigenvalues not converged
     ethr =  5.20E-07,  avg # of iterations =  3.0

     total cpu time spent up to now is       27.7 secs

     total energy              =    -121.12133507 Ry
     Harris-Foulkes estimate   =    -121.12133581 Ry
     estimated scf accuracy    <       0.00000182 Ry

     iteration #  6     ecut=    30.00 Ry     beta= 0.30
     CG style diagonalization
     ethr =  1.66E-08,  avg # of iterations =  3.0

     total cpu time spent up to now is       31.1 secs

     total energy              =    -121.12133544 Ry
     Harris-Foulkes estimate   =    -121.12133548 Ry
     estimated scf accuracy    <       0.00000009 Ry

     iteration #  7     ecut=    30.00 Ry     beta= 0.30
     CG style diagonalization
     ethr =  8.31E-10,  avg # of iterations =  3.0

     total cpu time spent up to now is       34.6 secs

     total energy              =    -121.12133546 Ry
     Harris-Foulkes estimate   =    -121.12133546 Ry
     estimated scf accuracy    <          1.8E-09 Ry

     iteration #  8     ecut=    30.00 Ry     beta= 0.30
     CG style diagonalization
     ethr =  1.66E-11,  avg # of iterations =  3.0

     total cpu time spent up to now is       38.3 secs

     total energy              =    -121.12133546 Ry
     Harris-Foulkes estimate   =    -121.12133546 Ry
     estimated scf accuracy    <          1.3E-09 Ry

     iteration #  9     ecut=    30.00 Ry     beta= 0.30
     CG style diagonalization
     ethr =  1.14E-11,  avg # of iterations =  3.0

     total cpu time spent up to now is       42.0 secs

     total energy              =    -121.12133546 Ry
     Harris-Foulkes estimate   =    -121.12133546 Ry
     estimated scf accuracy    <          3.8E-12 Ry

     iteration # 10     ecut=    30.00 Ry     beta= 0.30
     CG style diagonalization
     ethr =  1.00E-13,  avg # of iterations =  3.0

     total cpu time spent up to now is       45.6 secs

     End of self-consistent calculation

     Number of k-points >= 100: set verbosity='high' to print the bands.

     the Fermi energy is    12.2102 ev

!    total energy              =    -121.12133546 Ry
     Harris-Foulkes estimate   =    -121.12133546 Ry
     estimated scf accuracy    <          9.3E-14 Ry

     The total energy is the sum of the following terms:

     one-electron contribution =     -28.60538015 Ry
     hartree contribution      =      30.86909502 Ry
     xc contribution           =     -42.06465244 Ry
     ewald contribution        =     -81.32047950 Ry
     smearing contrib. (-TS)   =       0.00008161 Ry

     convergence has been achieved in  10 iterations

     Writing output data file /home/edmondium/Documents/qe-6.7/tempdir/pwscf.save/

     init_run     :      1.13s CPU      1.15s WALL (       1 calls)
     electrons    :     37.85s CPU     43.98s WALL (       1 calls)

     Called by init_run:
     wfcinit      :      0.90s CPU      0.92s WALL (       1 calls)
     potinit      :      0.00s CPU      0.00s WALL (       1 calls)
     hinit0       :      0.22s CPU      0.22s WALL (       1 calls)

     Called by electrons:
     c_bands      :     34.41s CPU     40.01s WALL (      10 calls)
     sum_band     :      3.38s CPU      3.92s WALL (      10 calls)
     v_of_rho     :      0.01s CPU      0.01s WALL (      11 calls)
     newd         :      0.04s CPU      0.04s WALL (      11 calls)
     mix_rho      :      0.00s CPU      0.00s WALL (      10 calls)

     Called by c_bands:
     init_us_2    :      0.21s CPU      0.25s WALL (    3045 calls)
     ccgdiagg     :     27.18s CPU     31.65s WALL (    1450 calls)
     wfcrot       :      7.88s CPU      8.98s WALL (    1450 calls)

     Called by sum_band:
     sum_band:bec :      0.03s CPU      0.04s WALL (    1450 calls)
     addusdens    :      0.04s CPU      0.04s WALL (      10 calls)

     Called by *cgdiagg:
     h_psi        :     25.41s CPU     29.48s WALL (  104723 calls)
     s_psi        :      2.00s CPU      2.36s WALL (  207996 calls)
     cdiaghg      :      0.67s CPU      0.74s WALL (    1450 calls)

     Called by h_psi:
     h_psi:calbec :      1.96s CPU      2.28s WALL (  104723 calls)
     vloc_psi     :     21.85s CPU     25.35s WALL (  104723 calls)
     add_vuspsi   :      1.09s CPU      1.29s WALL (  104723 calls)
     hs_1psi      :     21.07s CPU     24.47s WALL (  103273 calls)
     s_1psi       :      2.68s CPU      3.07s WALL (  103273 calls)

     General routines
     calbec       :      3.05s CPU      3.67s WALL (  209446 calls)
     fft          :      0.01s CPU      0.01s WALL (      44 calls)
     ffts         :      0.00s CPU      0.00s WALL (      10 calls)
     fftw         :     21.91s CPU     25.43s WALL (  315296 calls)

     Parallel routines
     fft_scatt_xy :      2.45s CPU      2.82s WALL (  315350 calls)
     fft_scatt_yz :      5.15s CPU      6.08s WALL (  315350 calls)

     PWSCF        :     39.52s CPU     45.71s WALL


   This run was terminated on:  19:16:51   1Jan2021            

=------------------------------------------------------------------------------=
   JOB DONE.
=------------------------------------------------------------------------------=
