
     Program PWSCF v.6.5 starts on 31Jan2021 at 13:56:43 

     This program is part of the open-source Quantum ESPRESSO suite
     for quantum simulation of materials; please cite
         "P. Giannozzi et al., J. Phys.:Condens. Matter 21 395502 (2009);
         "P. Giannozzi et al., J. Phys.:Condens. Matter 29 465901 (2017);
          URL http://www.quantum-espresso.org", 
     in publications or presentations arising from this work. More details at
     http://www.quantum-espresso.org/quote

     Parallel version (MPI), running on     4 processors

     MPI processes distributed on     1 nodes
     R & G space division:  proc/nbgrp/npool/nimage =       4
     Waiting for input...
     Reading input from standard input

     Current dimensions of program PWSCF are:
     Max number of different atomic species (ntypx) = 10
     Max number of k-points (npk) =  40000
     Max angular momentum in pseudopotentials (lmaxx) =  3

     Subspace diagonalization in iterative solution of the eigenvalue problem:
     a serial algorithm will be used


     Parallelization info
     --------------------
     sticks:   dense  smooth     PW     G-vecs:    dense   smooth      PW
     Min          49      49     18                  451      451     102
     Max          50      50     19                  453      453     104
     Sum         199     199     73                 1807     1807     411



     bravais-lattice index     =            2
     lattice parameter (alat)  =       6.8220  a.u.
     unit-cell volume          =      79.3734 (a.u.)^3
     number of atoms/cell      =            1
     number of atomic types    =            1
     number of electrons       =        11.00
     number of Kohn-Sham states=           25
     kinetic-energy cutoff     =      30.0000  Ry
     charge density cutoff     =     120.0000  Ry
     convergence threshold     =      1.0E-12
     mixing beta               =       0.3000
     number of iterations used =            8  plain     mixing
     Exchange-correlation= SLA PZ NOGX NOGC
                           (   1   1   0   0   0   0   0)

     celldm(1)=   6.822000  celldm(2)=   0.000000  celldm(3)=   0.000000
     celldm(4)=   0.000000  celldm(5)=   0.000000  celldm(6)=   0.000000

     crystal axes: (cart. coord. in units of alat)
               a(1) = (  -0.500000   0.000000   0.500000 )  
               a(2) = (   0.000000   0.500000   0.500000 )  
               a(3) = (  -0.500000   0.500000   0.000000 )  

     reciprocal axes: (cart. coord. in units 2 pi/alat)
               b(1) = ( -1.000000 -1.000000  1.000000 )  
               b(2) = (  1.000000  1.000000  1.000000 )  
               b(3) = ( -1.000000  1.000000 -1.000000 )  


     PseudoPot. # 1 for Cu read from file:
     /home/edmondium/quantum/pseudo/Cu.pz-n-van_ak.UPF
     MD5 check sum: 3309a1728b6661467a77298863cc3c06
     Pseudo is Ultrasoft + core correction, Zval = 11.0
     Generated by new atomic code, or converted to UPF format
     Using radial grid of  867 points,  6 beta functions with: 
                l(1) =   0
                l(2) =   0
                l(3) =   1
                l(4) =   1
                l(5) =   2
                l(6) =   2
     Q(r) pseudized with  8 coefficients,  rinner =    1.400   1.400   1.400
                                                       1.400   1.400

     atomic species   valence    mass     pseudopotential
        Cu            11.00    63.54600     Cu( 1.00)

     48 Sym. Ops., with inversion, found



   Cartesian axes

     site n.     atom                  positions (alat units)
         1           Cu  tau(   1) = (   0.0000000   0.0000000   0.0000000  )

     number of k points=   145  Marzari-Vanderbilt smearing, width (Ry)=  0.0200

     Number of k-points >= 100: set verbosity='high' to print them.

     Dense  grid:     1807 G-vectors     FFT dimensions: (  18,  18,  18)

     Estimated max dynamical RAM per process >       5.63 MB

     Estimated total dynamical RAM >      22.50 MB

     Initial potential from superposition of free atoms

     starting charge   10.99145, renormalised to   11.00000
     Starting wfcs are random

     total cpu time spent up to now is        0.7 secs

     Self-consistent Calculation

     iteration #  1     ecut=    30.00 Ry     beta= 0.30
     CG style diagonalization
     c_bands:  1 eigenvalues not converged
     c_bands:  1 eigenvalues not converged
     c_bands:  1 eigenvalues not converged
     c_bands:  1 eigenvalues not converged
     c_bands:  1 eigenvalues not converged
     c_bands:  1 eigenvalues not converged
     c_bands:  1 eigenvalues not converged
     c_bands:  1 eigenvalues not converged
     c_bands:  1 eigenvalues not converged
     c_bands:  1 eigenvalues not converged
     c_bands:  1 eigenvalues not converged
     c_bands:  1 eigenvalues not converged
     c_bands:  1 eigenvalues not converged
     c_bands:  1 eigenvalues not converged
     c_bands:  2 eigenvalues not converged
     c_bands:  1 eigenvalues not converged
     c_bands:  2 eigenvalues not converged
     ethr =  1.00E-02,  avg # of iterations =  9.1

     total cpu time spent up to now is        5.1 secs

     total energy              =    -120.99988233 Ry
     Harris-Foulkes estimate   =    -121.06770705 Ry
     estimated scf accuracy    <       0.14960943 Ry

     iteration #  2     ecut=    30.00 Ry     beta= 0.30
     CG style diagonalization
     ethr =  1.36E-03,  avg # of iterations =  3.2

     total cpu time spent up to now is        6.6 secs

     total energy              =    -121.11828088 Ry
     Harris-Foulkes estimate   =    -121.12383416 Ry
     estimated scf accuracy    <       0.01498896 Ry

     iteration #  3     ecut=    30.00 Ry     beta= 0.30
     CG style diagonalization
     ethr =  1.36E-04,  avg # of iterations =  3.3

     total cpu time spent up to now is        8.1 secs

     total energy              =    -121.12129824 Ry
     Harris-Foulkes estimate   =    -121.12140631 Ry
     estimated scf accuracy    <       0.00025721 Ry

     iteration #  4     ecut=    30.00 Ry     beta= 0.30
     CG style diagonalization
     c_bands:  1 eigenvalues not converged
     c_bands:  1 eigenvalues not converged
     c_bands:  1 eigenvalues not converged
     ethr =  2.34E-06,  avg # of iterations =  4.0

     total cpu time spent up to now is        9.9 secs

     total energy              =    -121.12132633 Ry
     Harris-Foulkes estimate   =    -121.12134395 Ry
     estimated scf accuracy    <       0.00004531 Ry

     iteration #  5     ecut=    30.00 Ry     beta= 0.30
     CG style diagonalization
     c_bands:  1 eigenvalues not converged
     ethr =  4.12E-07,  avg # of iterations =  3.0

     total cpu time spent up to now is       11.3 secs

     total energy              =    -121.12133513 Ry
     Harris-Foulkes estimate   =    -121.12133576 Ry
     estimated scf accuracy    <       0.00000153 Ry

     iteration #  6     ecut=    30.00 Ry     beta= 0.30
     CG style diagonalization
     ethr =  1.39E-08,  avg # of iterations =  3.0

     total cpu time spent up to now is       12.7 secs

     total energy              =    -121.12133544 Ry
     Harris-Foulkes estimate   =    -121.12133548 Ry
     estimated scf accuracy    <       0.00000010 Ry

     iteration #  7     ecut=    30.00 Ry     beta= 0.30
     CG style diagonalization
     ethr =  9.00E-10,  avg # of iterations =  3.0

     total cpu time spent up to now is       14.0 secs

     total energy              =    -121.12133546 Ry
     Harris-Foulkes estimate   =    -121.12133546 Ry
     estimated scf accuracy    <          2.9E-09 Ry

     iteration #  8     ecut=    30.00 Ry     beta= 0.30
     CG style diagonalization
     ethr =  2.67E-11,  avg # of iterations =  3.0

     total cpu time spent up to now is       15.3 secs

     total energy              =    -121.12133546 Ry
     Harris-Foulkes estimate   =    -121.12133546 Ry
     estimated scf accuracy    <          6.1E-10 Ry

     iteration #  9     ecut=    30.00 Ry     beta= 0.30
     CG style diagonalization
     ethr =  5.55E-12,  avg # of iterations =  3.0

     total cpu time spent up to now is       16.7 secs

     End of self-consistent calculation

     Number of k-points >= 100: set verbosity='high' to print the bands.

     the Fermi energy is    12.2102 ev

!    total energy              =    -121.12133546 Ry
     Harris-Foulkes estimate   =    -121.12133546 Ry
     estimated scf accuracy    <          8.9E-13 Ry

     The total energy is the sum of the following terms:

     one-electron contribution =     -28.60537718 Ry
     hartree contribution      =      30.86909111 Ry
     xc contribution           =     -42.06465150 Ry
     ewald contribution        =     -81.32047950 Ry
     smearing contrib. (-TS)   =       0.00008161 Ry

     convergence has been achieved in   9 iterations

     Writing output data file /home/edmondium/quantum/tempdir/pwscf.save/

     init_run     :      0.34s CPU      0.39s WALL (       1 calls)
     electrons    :     14.37s CPU     16.02s WALL (       1 calls)

     Called by init_run:
     wfcinit      :      0.29s CPU      0.34s WALL (       1 calls)
     potinit      :      0.00s CPU      0.00s WALL (       1 calls)
     hinit0       :      0.05s CPU      0.05s WALL (       1 calls)

     Called by electrons:
     c_bands      :     13.16s CPU     14.74s WALL (       9 calls)
     sum_band     :      1.19s CPU      1.26s WALL (       9 calls)
     v_of_rho     :      0.00s CPU      0.00s WALL (      10 calls)
     newd         :      0.02s CPU      0.02s WALL (      10 calls)
     mix_rho      :      0.00s CPU      0.00s WALL (       9 calls)

     Called by c_bands:
     init_us_2    :      0.05s CPU      0.06s WALL (    2755 calls)
     ccgdiagg     :     10.93s CPU     12.27s WALL (    1305 calls)
     wfcrot       :      2.44s CPU      2.73s WALL (    1305 calls)

     Called by sum_band:
     sum_band:bec :      0.01s CPU      0.01s WALL (    1305 calls)
     addusdens    :      0.01s CPU      0.01s WALL (       9 calls)

     Called by *cgdiagg:
     h_psi        :      9.22s CPU     10.33s WALL (   97512 calls)
     s_psi        :      0.51s CPU      0.59s WALL (  193719 calls)
     cdiaghg      :      0.30s CPU      0.33s WALL (    1305 calls)

     Called by h_psi:
     h_psi:calbec :      0.75s CPU      0.84s WALL (   97512 calls)
     vloc_psi     :      7.72s CPU      8.65s WALL (   97512 calls)
     add_vuspsi   :      0.44s CPU      0.50s WALL (   97512 calls)
     hs_1psi      :      7.97s CPU      8.94s WALL (   96207 calls)
     s_1psi       :      1.07s CPU      1.20s WALL (   96207 calls)

     General routines
     calbec       :      1.06s CPU      1.20s WALL (  195024 calls)
     fft          :      0.00s CPU      0.00s WALL (      40 calls)
     ffts         :      0.00s CPU      0.00s WALL (       9 calls)
     fftw         :      7.81s CPU      8.69s WALL (  290289 calls)

     Parallel routines
     fft_scatt_xy :      0.86s CPU      0.95s WALL (  290338 calls)
     fft_scatt_yz :      2.41s CPU      2.67s WALL (  290338 calls)

     PWSCF        :     15.04s CPU     16.76s WALL


   This run was terminated on:  13:57: 0  31Jan2021            

=------------------------------------------------------------------------------=
   JOB DONE.
=------------------------------------------------------------------------------=
