
     Program PWSCF v.6.5 starts on 31Jan2021 at 13:46:13 

     This program is part of the open-source Quantum ESPRESSO suite
     for quantum simulation of materials; please cite
         "P. Giannozzi et al., J. Phys.:Condens. Matter 21 395502 (2009);
         "P. Giannozzi et al., J. Phys.:Condens. Matter 29 465901 (2017);
          URL http://www.quantum-espresso.org", 
     in publications or presentations arising from this work. More details at
     http://www.quantum-espresso.org/quote

     Parallel version (MPI), running on     4 processors

     MPI processes distributed on     1 nodes
     R & G space division:  proc/nbgrp/npool/nimage =       4
     Waiting for input...
     Reading input from standard input

     Current dimensions of program PWSCF are:
     Max number of different atomic species (ntypx) = 10
     Max number of k-points (npk) =  40000
     Max angular momentum in pseudopotentials (lmaxx) =  3

     Atomic positions and unit cell read from directory:
     /home/edmondium/quantum/tempdir/pwscf.save/                                                                                                                                                                                                                     

     WARNING: atomic wfc #  5 for atom type 1 has zero norm

     Fixed quantization axis for GGA:    -0.000000   -0.000000   -1.000000

     Subspace diagonalization in iterative solution of the eigenvalue problem:
     a serial algorithm will be used


     Parallelization info
     --------------------
     sticks:   dense  smooth     PW     G-vecs:    dense   smooth      PW
     Min         199     199     72                 3542     3542     787
     Max         200     200     73                 3544     3544     788
     Sum         797     797    291                14171    14171    3151



     bravais-lattice index     =            3
     lattice parameter (alat)  =       5.4235  a.u.
     unit-cell volume          =      79.7644 (a.u.)^3
     number of atoms/cell      =            1
     number of atomic types    =            1
     number of electrons       =         8.00
     number of Kohn-Sham states=           28
     kinetic-energy cutoff     =     120.0000  Ry
     charge density cutoff     =     480.0000  Ry
     Exchange-correlation=  SLA  PW   PBX  PBC
                           (   1   4   3   4   0   0   0)
     Noncollinear calculation with spin-orbit


     celldm(1)=   5.423500  celldm(2)=   0.000000  celldm(3)=   0.000000
     celldm(4)=   0.000000  celldm(5)=   0.000000  celldm(6)=   0.000000

     crystal axes: (cart. coord. in units of alat)
               a(1) = (   0.500000   0.500000   0.500000 )  
               a(2) = (  -0.500000   0.500000   0.500000 )  
               a(3) = (  -0.500000  -0.500000   0.500000 )  

     reciprocal axes: (cart. coord. in units 2 pi/alat)
               b(1) = (  1.000000  0.000000  1.000000 )  
               b(2) = ( -1.000000  1.000000  0.000000 )  
               b(3) = (  0.000000 -1.000000  1.000000 )  


     PseudoPot. # 1 for Fe read from file:
     /home/edmondium/quantum/pseudo/Fe.jry.pbe.UPF
     MD5 check sum: 78c02686e98e189cfdefd3b0caba24c3
     Pseudo is Norm-conserving + core correction, Zval =  8.0
     Generated by new atomic code, or converted to UPF format
     Using radial grid of 1165 points,  4 beta functions with: 
                l(1) =   2
                l(2) =   2
                l(3) =   1
                l(4) =   1

     atomic species   valence    mass     pseudopotential
        Fe             8.00    55.85000     Fe( 1.00)

     No symmetry found



   Cartesian axes

     site n.     atom                  positions (alat units)
         1           Fe  tau(   1) = (   0.0000000   0.0000000   0.0000000  )

     number of k points=   210

     Number of k-points >= 100: set verbosity='high' to print them.

     Dense  grid:    14171 G-vectors     FFT dimensions: (  36,  36,  36)

     Estimated max dynamical RAM per process >       4.61 MB

     Estimated total dynamical RAM >      18.46 MB
     Generating pointlists ...
     new r_m :   0.3572 (alat units)  1.9375 (a.u.) for type    1

     The potential is recalculated from file :
     /home/edmondium/quantum/tempdir/pwscf.save/charge-density

     Starting wfcs are random

     Band Structure Calculation
     CG style diagonalization
     c_bands:  1 eigenvalues not converged
     c_bands:  1 eigenvalues not converged
     c_bands:  1 eigenvalues not converged

     ethr =  1.25E-12,  avg # of iterations = 53.9

     total cpu time spent up to now is      451.4 secs

     End of band structure calculation

     Number of k-points >= 100: set verbosity='high' to print the bands.

     highest occupied, lowest unoccupied level (ev):    13.4434   11.8998



               ==================================================
                            POLARIZATION CALCULATION
                         !!! NOT THOROUGHLY TESTED !!!
               --------------------------------------------------


                     K-POINTS STRINGS USED IN CALCULATIONS
                     ~~~~~~~~~~~~~~~~~~~~~~~~~~~~~~~~~~~~~

       G-vector along string (2 pi/a):  0.00000 -1.00000  1.00000
       Modulus of the vector (1/bohr):  1.63838
       Number of k-points per string:   7
       Number of different strings  :  30


                               IONIC POLARIZATION
                               ~~~~~~~~~~~~~~~~~~

  ============================================================================
    Ion    Species    Charge              Position                Phase
  ----------------------------------------------------------------------------
     1        Fe       8.000       0.0000  0.0000  0.0000     0.00000 (mod 2)
  ----------------------------------------------------------------------------
                                               IONIC PHASE:   0.00000 (mod 2)
  ============================================================================


                            ELECTRONIC POLARIZATION
                            ~~~~~~~~~~~~~~~~~~~~~~~

  ============================================================================
    String     Weight      First k-point in string         Phase
  ----------------------------------------------------------------------------
       1      0.003906      0.0000  0.0000  0.0000    -0.50000
       2      0.023437     -0.0625  0.0625  0.0000    -0.99633
       3      0.023437     -0.1250  0.1250  0.0000    -0.02772
       4      0.023437     -0.1875  0.1875  0.0000    -0.03334
       5      0.023437     -0.2500  0.2500  0.0000    -0.06528
       6      0.023437     -0.3125  0.3125  0.0000    -0.00508
       7      0.023437     -0.3750  0.3750  0.0000    -0.99874
       8      0.023437     -0.4375  0.4375  0.0000    -0.95833
       9      0.011719      0.5000 -0.5000  0.0000    -0.99996
      10      0.023437     -0.0625  0.1250  0.0625    -0.01371
      11      0.046875     -0.1250  0.1875  0.0625    -0.98416
      12      0.046875     -0.1875  0.2500  0.0625    -0.98304
      13      0.046875     -0.2500  0.3125  0.0625    -0.01051
      14      0.046875     -0.3125  0.3750  0.0625    -0.99380
      15      0.046875     -0.3750  0.4375  0.0625    -0.01299
      16      0.046875      0.5625 -0.5000  0.0625    -0.00256
      17      0.023437     -0.1250  0.2500  0.1250    -0.88382
      18      0.046875     -0.1875  0.3125  0.1250    -0.07342
      19      0.046875     -0.2500  0.3750  0.1250    -0.02201
      20      0.046875     -0.3125  0.4375  0.1250    -0.01231
      21      0.046875      0.6250 -0.5000  0.1250    -0.00715
      22      0.023437      0.5625 -0.4375  0.1250    -0.00045
      23      0.023437     -0.1875  0.3750  0.1875    -0.02446
      24      0.046875     -0.2500  0.4375  0.1875    -0.01570
      25      0.046875      0.6875 -0.5000  0.1875    -0.01129
      26      0.046875      0.6250 -0.4375  0.1875    -0.00771
      27      0.023437      0.7500 -0.5000  0.2500    -0.01855
      28      0.046875      0.6875 -0.4375  0.2500    -0.01706
      29      0.023437      0.6250 -0.3750  0.2500    -0.02377
      30      0.023437      0.6875 -0.3750  0.3125    -0.11780
  ----------------------------------------------------------------------------
                                          Average phase   :  -0.25917
  ============================================================================


                               SUMMARY OF PHASES
                               ~~~~~~~~~~~~~~~~~

                          Ionic Phase:  0.00000
                     Electronic Phase: -0.25917
                          TOTAL PHASE: -0.25917 MOD_TOT: 1


                             VALUES OF POLARIZATION
                             ~~~~~~~~~~~~~~~~~~~~~~

        The calculation of phases done along the direction of vector 3
        of the reciprocal lattice gives the following contribution to
        the polarization vector (in different units, and being Omega
        the volume of the unit cell):

           P =  -1.2173130  (mod   4.6968888)  (e/Omega).bohr

           P =  -0.0152614  (mod   0.0588845)  e/bohr^2

           P =  -0.8725184  (mod   3.3665310)  C/m^2

        The polarization direction is:  (-0.57735 ,-0.57735 , 0.57735 )


               ==================================================



     Writing output data file /home/edmondium/quantum/tempdir/pwscf.save/

     init_run     :      0.11s CPU      0.11s WALL (       1 calls)
     electrons    :    435.76s CPU    451.09s WALL (       1 calls)

     Called by init_run:
     wfcinit      :      0.00s CPU      0.00s WALL (       1 calls)
     potinit      :      0.03s CPU      0.03s WALL (       1 calls)
     hinit0       :      0.06s CPU      0.06s WALL (       1 calls)

     Called by electrons:
     c_bands      :    435.57s CPU    450.84s WALL (       1 calls)
     v_of_rho     :      0.03s CPU      0.03s WALL (       1 calls)

     Called by c_bands:
     init_us_2    :      0.03s CPU      0.03s WALL (     210 calls)
     ccgdiagg     :    409.83s CPU    424.28s WALL (     763 calls)
     wfcrot       :     25.24s CPU     26.03s WALL (     763 calls)

     Called by sum_band:

     Called by *cgdiagg:
     h_psi        :    372.45s CPU    385.51s WALL (  292635 calls)
     cdiaghg      :      0.26s CPU      0.27s WALL (     763 calls)

     Called by h_psi:
     h_psi:calbec :     15.33s CPU     15.86s WALL (  292635 calls)
     vloc_psi     :    348.28s CPU    360.50s WALL (  292635 calls)
     add_vuspsi   :      7.04s CPU      7.33s WALL (  292635 calls)
     hs_1psi      :    350.34s CPU    362.63s WALL (  291872 calls)
     s_1psi       :     10.90s CPU     11.20s WALL (  291872 calls)

     General routines
     calbec       :     24.10s CPU     25.06s WALL (  584507 calls)
     fft          :      0.02s CPU      0.02s WALL (      23 calls)
     fftw         :    307.79s CPU    318.52s WALL ( 1252944 calls)
     davcio       :      0.17s CPU      0.23s WALL (     780 calls)

     Parallel routines
     fft_scatt_xy :     20.11s CPU     20.84s WALL ( 1252967 calls)
     fft_scatt_yz :    123.68s CPU    127.62s WALL ( 1252967 calls)

     PWSCF        :   7m16.57s CPU   7m33.12s WALL


   This run was terminated on:  13:53:46  31Jan2021            

=------------------------------------------------------------------------------=
   JOB DONE.
=------------------------------------------------------------------------------=
