
     Program PWSCF v.6.5 starts on 13Jan2021 at 16:45:21 

     This program is part of the open-source Quantum ESPRESSO suite
     for quantum simulation of materials; please cite
         "P. Giannozzi et al., J. Phys.:Condens. Matter 21 395502 (2009);
         "P. Giannozzi et al., J. Phys.:Condens. Matter 29 465901 (2017);
          URL http://www.quantum-espresso.org", 
     in publications or presentations arising from this work. More details at
     http://www.quantum-espresso.org/quote

     Parallel version (MPI), running on     2 processors

     MPI processes distributed on     1 nodes
     R & G space division:  proc/nbgrp/npool/nimage =       2
     Waiting for input...
     Reading input from standard input

     Current dimensions of program PWSCF are:
     Max number of different atomic species (ntypx) = 10
     Max number of k-points (npk) =  40000
     Max angular momentum in pseudopotentials (lmaxx) =  3

     Atomic positions and unit cell read from directory:
     /home/edmondium/Documents/qe-6.7/tempdir/pwscf.save/                                                                                                                                                                                                            

     WARNING: atomic wfc #  5 for atom type 1 has zero norm

     Fixed quantization axis for GGA:    -0.000000   -0.000000   -1.000000

     Subspace diagonalization in iterative solution of the eigenvalue problem:
     a serial algorithm will be used


     Parallelization info
     --------------------
     sticks:   dense  smooth     PW     G-vecs:    dense   smooth      PW
     Min         398     398    145                 7085     7085    1575
     Max         399     399    146                 7086     7086    1576
     Sum         797     797    291                14171    14171    3151



     bravais-lattice index     =            3
     lattice parameter (alat)  =       5.4235  a.u.
     unit-cell volume          =      79.7644 (a.u.)^3
     number of atoms/cell      =            1
     number of atomic types    =            1
     number of electrons       =         8.00
     number of Kohn-Sham states=           28
     kinetic-energy cutoff     =     120.0000  Ry
     charge density cutoff     =     480.0000  Ry
     Exchange-correlation=  SLA  PW   PBX  PBC
                           (   1   4   3   4   0   0   0)
     Noncollinear calculation with spin-orbit


     celldm(1)=   5.423500  celldm(2)=   0.000000  celldm(3)=   0.000000
     celldm(4)=   0.000000  celldm(5)=   0.000000  celldm(6)=   0.000000

     crystal axes: (cart. coord. in units of alat)
               a(1) = (   0.500000   0.500000   0.500000 )  
               a(2) = (  -0.500000   0.500000   0.500000 )  
               a(3) = (  -0.500000  -0.500000   0.500000 )  

     reciprocal axes: (cart. coord. in units 2 pi/alat)
               b(1) = (  1.000000  0.000000  1.000000 )  
               b(2) = ( -1.000000  1.000000  0.000000 )  
               b(3) = (  0.000000 -1.000000  1.000000 )  


     PseudoPot. # 1 for Fe read from file:
     /home/edmondium/Documents/qe-6.7/pseudo/Fe.jry.pbe.UPF
     MD5 check sum: 78c02686e98e189cfdefd3b0caba24c3
     Pseudo is Norm-conserving + core correction, Zval =  8.0
     Generated by new atomic code, or converted to UPF format
     Using radial grid of 1165 points,  4 beta functions with: 
                l(1) =   2
                l(2) =   2
                l(3) =   1
                l(4) =   1

     atomic species   valence    mass     pseudopotential
        Fe             8.00    55.85000     Fe( 1.00)

     No symmetry found



   Cartesian axes

     site n.     atom                  positions (alat units)
         1           Fe  tau(   1) = (   0.0000000   0.0000000   0.0000000  )

     number of k points=   210

     Number of k-points >= 100: set verbosity='high' to print them.

     Dense  grid:    14171 G-vectors     FFT dimensions: (  36,  36,  36)

     Estimated max dynamical RAM per process >       8.49 MB

     Estimated total dynamical RAM >      16.98 MB
     Generating pointlists ...
     new r_m :   0.3572 (alat units)  1.9375 (a.u.) for type    1

     The potential is recalculated from file :
     /home/edmondium/Documents/qe-6.7/tempdir/pwscf.save/charge-density

     Starting wfcs are random

     Band Structure Calculation
     CG style diagonalization
     c_bands:  1 eigenvalues not converged
     c_bands:  1 eigenvalues not converged
     c_bands:  2 eigenvalues not converged
     c_bands:  1 eigenvalues not converged

     ethr =  1.25E-12,  avg # of iterations = 53.7

     total cpu time spent up to now is     1394.4 secs

     End of band structure calculation

     Number of k-points >= 100: set verbosity='high' to print the bands.

     highest occupied, lowest unoccupied level (ev):    13.4433   11.8998



               ==================================================
                            POLARIZATION CALCULATION
                         !!! NOT THOROUGHLY TESTED !!!
               --------------------------------------------------


                     K-POINTS STRINGS USED IN CALCULATIONS
                     ~~~~~~~~~~~~~~~~~~~~~~~~~~~~~~~~~~~~~

       G-vector along string (2 pi/a):  0.00000 -1.00000  1.00000
       Modulus of the vector (1/bohr):  1.63838
       Number of k-points per string:   7
       Number of different strings  :  30


                               IONIC POLARIZATION
                               ~~~~~~~~~~~~~~~~~~

  ============================================================================
    Ion    Species    Charge              Position                Phase
  ----------------------------------------------------------------------------
     1        Fe       8.000       0.0000  0.0000  0.0000     0.00000 (mod 2)
  ----------------------------------------------------------------------------
                                               IONIC PHASE:   0.00000 (mod 2)
  ============================================================================


                            ELECTRONIC POLARIZATION
                            ~~~~~~~~~~~~~~~~~~~~~~~

  ============================================================================
    String     Weight      First k-point in string         Phase
  ----------------------------------------------------------------------------
       1      0.003906      0.0000  0.0000  0.0000     0.50000
       2      0.023437     -0.0625  0.0625  0.0000     0.00366
       3      0.023437     -0.1250  0.1250  0.0000     0.97229
       4      0.023437     -0.1875  0.1875  0.0000     0.96666
       5      0.023437     -0.2500  0.2500  0.0000     0.93472
       6      0.023437     -0.3125  0.3125  0.0000     0.99493
       7      0.023437     -0.3750  0.3750  0.0000     0.00126
       8      0.023437     -0.4375  0.4375  0.0000     0.04167
       9      0.011719      0.5000 -0.5000  0.0000     0.99998
      10      0.023437     -0.0625  0.1250  0.0625     0.98629
      11      0.046875     -0.1250  0.1875  0.0625     0.01584
      12      0.046875     -0.1875  0.2500  0.0625     0.01697
      13      0.046875     -0.2500  0.3125  0.0625     0.98949
      14      0.046875     -0.3125  0.3750  0.0625     0.00620
      15      0.046875     -0.3750  0.4375  0.0625     0.98701
      16      0.046875      0.5625 -0.5000  0.0625     0.99744
      17      0.023437     -0.1250  0.2500  0.1250     0.11618
      18      0.046875     -0.1875  0.3125  0.1250     0.92658
      19      0.046875     -0.2500  0.3750  0.1250     0.97799
      20      0.046875     -0.3125  0.4375  0.1250     0.98769
      21      0.046875      0.6250 -0.5000  0.1250     0.99286
      22      0.023437      0.5625 -0.4375  0.1250     0.99955
      23      0.023437     -0.1875  0.3750  0.1875     0.97553
      24      0.046875     -0.2500  0.4375  0.1875     0.98430
      25      0.046875      0.6875 -0.5000  0.1875     0.98871
      26      0.046875      0.6250 -0.4375  0.1875     0.99229
      27      0.023437      0.7500 -0.5000  0.2500     0.98146
      28      0.046875      0.6875 -0.4375  0.2500     0.98294
      29      0.023437      0.6250 -0.3750  0.2500     0.97623
      30      0.023437      0.6875 -0.3750  0.3125     0.88219
  ----------------------------------------------------------------------------
                                          Average phase   :  -0.24746
  ============================================================================


                               SUMMARY OF PHASES
                               ~~~~~~~~~~~~~~~~~

                          Ionic Phase:  0.00000
                     Electronic Phase: -0.24746
                          TOTAL PHASE: -0.24746 MOD_TOT: 1


                             VALUES OF POLARIZATION
                             ~~~~~~~~~~~~~~~~~~~~~~

        The calculation of phases done along the direction of vector 3
        of the reciprocal lattice gives the following contribution to
        the polarization vector (in different units, and being Omega
        the volume of the unit cell):

           P =  -1.1622713  (mod   4.6968888)  (e/Omega).bohr

           P =  -0.0145713  (mod   0.0588845)  e/bohr^2

           P =  -0.8330668  (mod   3.3665310)  C/m^2

        The polarization direction is:  (-0.57735 ,-0.57735 , 0.57735 )


               ==================================================



     Writing output data file /home/edmondium/Documents/qe-6.7/tempdir/pwscf.save/

     init_run     :      0.32s CPU      0.34s WALL (       1 calls)
     electrons    :   1344.36s CPU   1393.88s WALL (       1 calls)

     Called by init_run:
     wfcinit      :      0.00s CPU      0.00s WALL (       1 calls)
     potinit      :      0.06s CPU      0.08s WALL (       1 calls)
     hinit0       :      0.21s CPU      0.21s WALL (       1 calls)

     Called by electrons:
     c_bands      :   1343.47s CPU   1392.70s WALL (       1 calls)
     v_of_rho     :      0.06s CPU      0.08s WALL (       1 calls)

     Called by c_bands:
     init_us_2    :      0.11s CPU      0.14s WALL (     210 calls)
     ccgdiagg     :   1259.02s CPU   1300.03s WALL (     748 calls)
     wfcrot       :     82.32s CPU     84.83s WALL (     748 calls)

     Called by sum_band:

     Called by *cgdiagg:
     h_psi        :   1101.62s CPU   1137.85s WALL (  292111 calls)
     cdiaghg      :      0.63s CPU      0.64s WALL (     748 calls)

     Called by h_psi:
     h_psi:calbec :     56.32s CPU     58.17s WALL (  292111 calls)
     vloc_psi     :   1007.51s CPU   1040.73s WALL (  292111 calls)
     add_vuspsi   :     32.59s CPU     33.80s WALL (  292111 calls)
     hs_1psi      :   1038.67s CPU   1072.37s WALL (  291363 calls)
     s_1psi       :     40.73s CPU     41.82s WALL (  291363 calls)

     General routines
     calbec       :     91.57s CPU     95.12s WALL (  583474 calls)
     fft          :      0.02s CPU      0.02s WALL (      23 calls)
     fftw         :    797.39s CPU    823.23s WALL ( 1249228 calls)
     davcio       :      0.41s CPU      5.95s WALL (     780 calls)

     Parallel routines
     fft_scatt_xy :    103.63s CPU    106.90s WALL ( 1249251 calls)
     fft_scatt_yz :    125.00s CPU    129.69s WALL ( 1249251 calls)

     PWSCF        :  22m25.99s CPU  23m16.61s WALL


   This run was terminated on:  17: 8:37  13Jan2021            

=------------------------------------------------------------------------------=
   JOB DONE.
=------------------------------------------------------------------------------=
