
     Program PWSCF v.6.5 starts on 31Jan2021 at 13:31:27 

     This program is part of the open-source Quantum ESPRESSO suite
     for quantum simulation of materials; please cite
         "P. Giannozzi et al., J. Phys.:Condens. Matter 21 395502 (2009);
         "P. Giannozzi et al., J. Phys.:Condens. Matter 29 465901 (2017);
          URL http://www.quantum-espresso.org", 
     in publications or presentations arising from this work. More details at
     http://www.quantum-espresso.org/quote

     Parallel version (MPI), running on     4 processors

     MPI processes distributed on     1 nodes
     R & G space division:  proc/nbgrp/npool/nimage =       4
     Waiting for input...
     Reading input from standard input

     Current dimensions of program PWSCF are:
     Max number of different atomic species (ntypx) = 10
     Max number of k-points (npk) =  40000
     Max angular momentum in pseudopotentials (lmaxx) =  3
     WARNING: atomic wfc #  5 for atom type 1 has zero norm

     Fixed quantization axis for GGA:    -0.000000   -0.000000   -1.000000

     Subspace diagonalization in iterative solution of the eigenvalue problem:
     a serial algorithm will be used


     Parallelization info
     --------------------
     sticks:   dense  smooth     PW     G-vecs:    dense   smooth      PW
     Min         199     199     60                 3542     3542     586
     Max         200     200     61                 3544     3544     587
     Sum         797     797    241                14171    14171    2347



     bravais-lattice index     =            3
     lattice parameter (alat)  =       5.4235  a.u.
     unit-cell volume          =      79.7644 (a.u.)^3
     number of atoms/cell      =            1
     number of atomic types    =            1
     number of electrons       =         8.00
     number of Kohn-Sham states=           25
     kinetic-energy cutoff     =     120.0000  Ry
     charge density cutoff     =     480.0000  Ry
     convergence threshold     =      1.0E-12
     mixing beta               =       0.3000
     number of iterations used =            8  plain     mixing
     Exchange-correlation=  SLA  PW   PBX  PBC
                           (   1   4   3   4   0   0   0)
     Noncollinear calculation with spin-orbit


     celldm(1)=   5.423500  celldm(2)=   0.000000  celldm(3)=   0.000000
     celldm(4)=   0.000000  celldm(5)=   0.000000  celldm(6)=   0.000000

     crystal axes: (cart. coord. in units of alat)
               a(1) = (   0.500000   0.500000   0.500000 )  
               a(2) = (  -0.500000   0.500000   0.500000 )  
               a(3) = (  -0.500000  -0.500000   0.500000 )  

     reciprocal axes: (cart. coord. in units 2 pi/alat)
               b(1) = (  1.000000  0.000000  1.000000 )  
               b(2) = ( -1.000000  1.000000  0.000000 )  
               b(3) = (  0.000000 -1.000000  1.000000 )  


     PseudoPot. # 1 for Fe read from file:
     /home/edmondium/quantum/pseudo/Fe.jry.pbe.UPF
     MD5 check sum: 78c02686e98e189cfdefd3b0caba24c3
     Pseudo is Norm-conserving + core correction, Zval =  8.0
     Generated by new atomic code, or converted to UPF format
     Using radial grid of 1165 points,  4 beta functions with: 
                l(1) =   2
                l(2) =   2
                l(3) =   1
                l(4) =   1

     atomic species   valence    mass     pseudopotential
        Fe             8.00    55.85000     Fe( 1.00)

     16 Sym. Ops., with inversion, found



   Cartesian axes

     site n.     atom                  positions (alat units)
         1           Fe  tau(   1) = (   0.0000000   0.0000000   0.0000000  )

     number of k points=   349  Marzari-Vanderbilt smearing, width (Ry)=  0.0200

     Number of k-points >= 100: set verbosity='high' to print them.

     Dense  grid:    14171 G-vectors     FFT dimensions: (  36,  36,  36)

     Estimated max dynamical RAM per process >     126.23 MB

     Estimated total dynamical RAM >     504.93 MB
     Generating pointlists ...
     new r_m :   0.3572 (alat units)  1.9375 (a.u.) for type    1

     Initial potential from superposition of free atoms

     starting charge    7.98807, renormalised to    8.00000

 ==============================================================================
     atom number    1 relative position :    0.0000   0.0000   0.0000
     charge :     6.761094
     magnetization :          0.000000    0.000000   -6.761094
     magnetization/charge:    0.000000    0.000000   -1.000000
     polar coord.: r, theta, phi [deg] :     6.761094  180.000000  360.000000

 ==============================================================================
     Starting wfcs are random

     total cpu time spent up to now is        9.4 secs

     Self-consistent Calculation

     iteration #  1     ecut=   120.00 Ry     beta= 0.30
     CG style diagonalization
     c_bands:  1 eigenvalues not converged
     c_bands:  3 eigenvalues not converged
     c_bands:  4 eigenvalues not converged
     c_bands:  1 eigenvalues not converged
     c_bands:  1 eigenvalues not converged
     c_bands:  3 eigenvalues not converged
     c_bands:  1 eigenvalues not converged
     c_bands:  1 eigenvalues not converged
     c_bands:  1 eigenvalues not converged
     c_bands:  3 eigenvalues not converged
     c_bands:  1 eigenvalues not converged
     c_bands:  2 eigenvalues not converged
     c_bands:  2 eigenvalues not converged
     c_bands:  1 eigenvalues not converged
     c_bands:  2 eigenvalues not converged
     c_bands:  2 eigenvalues not converged
     c_bands:  3 eigenvalues not converged
     c_bands:  1 eigenvalues not converged
     c_bands:  2 eigenvalues not converged
     c_bands:  2 eigenvalues not converged
     c_bands:  1 eigenvalues not converged
     c_bands:  1 eigenvalues not converged
     c_bands:  1 eigenvalues not converged
     c_bands:  3 eigenvalues not converged
     c_bands:  1 eigenvalues not converged
     c_bands:  1 eigenvalues not converged
     c_bands:  2 eigenvalues not converged
     c_bands:  2 eigenvalues not converged
     c_bands:  1 eigenvalues not converged
     c_bands:  1 eigenvalues not converged
     c_bands:  1 eigenvalues not converged
     c_bands:  3 eigenvalues not converged
     c_bands:  2 eigenvalues not converged
     c_bands:  3 eigenvalues not converged
     c_bands:  2 eigenvalues not converged
     c_bands:  4 eigenvalues not converged
     c_bands:  2 eigenvalues not converged
     c_bands:  1 eigenvalues not converged
     c_bands:  3 eigenvalues not converged
     c_bands:  1 eigenvalues not converged
     c_bands:  2 eigenvalues not converged
     c_bands:  1 eigenvalues not converged
     c_bands:  1 eigenvalues not converged
     c_bands:  2 eigenvalues not converged
     c_bands:  1 eigenvalues not converged
     c_bands:  1 eigenvalues not converged
     c_bands:  3 eigenvalues not converged
     c_bands:  1 eigenvalues not converged
     c_bands:  4 eigenvalues not converged
     c_bands:  2 eigenvalues not converged
     c_bands:  1 eigenvalues not converged
     c_bands:  1 eigenvalues not converged
     c_bands:  1 eigenvalues not converged
     c_bands:  2 eigenvalues not converged
     c_bands:  1 eigenvalues not converged
     c_bands:  3 eigenvalues not converged
     c_bands:  1 eigenvalues not converged
     c_bands:  2 eigenvalues not converged
     c_bands:  2 eigenvalues not converged
     c_bands:  2 eigenvalues not converged
     c_bands:  1 eigenvalues not converged
     c_bands:  2 eigenvalues not converged
     c_bands:  1 eigenvalues not converged
     c_bands:  2 eigenvalues not converged
     c_bands:  3 eigenvalues not converged
     c_bands:  1 eigenvalues not converged
     c_bands:  2 eigenvalues not converged
     c_bands:  2 eigenvalues not converged
     c_bands:  2 eigenvalues not converged
     c_bands:  1 eigenvalues not converged
     c_bands:  2 eigenvalues not converged
     c_bands:  1 eigenvalues not converged
     c_bands:  1 eigenvalues not converged
     c_bands:  2 eigenvalues not converged
     c_bands:  2 eigenvalues not converged
     c_bands:  1 eigenvalues not converged
     c_bands:  3 eigenvalues not converged
     c_bands:  2 eigenvalues not converged
     c_bands:  3 eigenvalues not converged
     c_bands:  1 eigenvalues not converged
     c_bands:  1 eigenvalues not converged
     c_bands:  2 eigenvalues not converged
     c_bands:  2 eigenvalues not converged
     c_bands:  2 eigenvalues not converged
     c_bands:  2 eigenvalues not converged
     c_bands:  1 eigenvalues not converged
     c_bands:  1 eigenvalues not converged
     c_bands:  2 eigenvalues not converged
     c_bands:  1 eigenvalues not converged
     c_bands:  2 eigenvalues not converged
     c_bands:  1 eigenvalues not converged
     c_bands:  1 eigenvalues not converged
     c_bands:  1 eigenvalues not converged
     c_bands:  1 eigenvalues not converged
     c_bands:  3 eigenvalues not converged
     c_bands:  1 eigenvalues not converged
     c_bands:  1 eigenvalues not converged
     c_bands:  1 eigenvalues not converged
     c_bands:  2 eigenvalues not converged
     c_bands:  1 eigenvalues not converged
     c_bands:  3 eigenvalues not converged
     c_bands:  3 eigenvalues not converged
     c_bands:  1 eigenvalues not converged
     c_bands:  1 eigenvalues not converged
     c_bands:  2 eigenvalues not converged
     c_bands:  1 eigenvalues not converged
     c_bands:  1 eigenvalues not converged
     c_bands:  3 eigenvalues not converged
     c_bands:  3 eigenvalues not converged
     c_bands:  1 eigenvalues not converged
     c_bands:  1 eigenvalues not converged
     c_bands:  2 eigenvalues not converged
     c_bands:  1 eigenvalues not converged
     c_bands:  2 eigenvalues not converged
     c_bands:  2 eigenvalues not converged
     c_bands:  2 eigenvalues not converged
     c_bands:  3 eigenvalues not converged
     c_bands:  1 eigenvalues not converged
     c_bands:  1 eigenvalues not converged
     c_bands:  1 eigenvalues not converged
     c_bands:  2 eigenvalues not converged
     c_bands:  1 eigenvalues not converged
     c_bands:  3 eigenvalues not converged
     c_bands:  2 eigenvalues not converged
     c_bands:  1 eigenvalues not converged
     c_bands:  1 eigenvalues not converged
     c_bands:  2 eigenvalues not converged
     c_bands:  2 eigenvalues not converged
     c_bands:  2 eigenvalues not converged
     c_bands:  1 eigenvalues not converged
     c_bands:  1 eigenvalues not converged
     c_bands:  1 eigenvalues not converged
     c_bands:  1 eigenvalues not converged
     c_bands:  1 eigenvalues not converged
     c_bands:  2 eigenvalues not converged
     c_bands:  2 eigenvalues not converged
     c_bands:  1 eigenvalues not converged
     c_bands:  1 eigenvalues not converged
     c_bands:  1 eigenvalues not converged
     c_bands:  1 eigenvalues not converged
     c_bands:  1 eigenvalues not converged
     c_bands:  1 eigenvalues not converged
     c_bands:  2 eigenvalues not converged
     c_bands:  1 eigenvalues not converged
     c_bands:  1 eigenvalues not converged
     c_bands:  2 eigenvalues not converged
     c_bands:  2 eigenvalues not converged
     c_bands:  1 eigenvalues not converged
     c_bands:  1 eigenvalues not converged
     c_bands:  1 eigenvalues not converged
     c_bands:  1 eigenvalues not converged
     c_bands:  1 eigenvalues not converged
     c_bands:  1 eigenvalues not converged
     c_bands:  3 eigenvalues not converged
     c_bands:  2 eigenvalues not converged
     c_bands:  3 eigenvalues not converged
     c_bands:  4 eigenvalues not converged
     c_bands:  1 eigenvalues not converged
     c_bands:  1 eigenvalues not converged
     c_bands:  1 eigenvalues not converged
     c_bands:  2 eigenvalues not converged
     c_bands:  1 eigenvalues not converged
     c_bands:  1 eigenvalues not converged
     c_bands:  1 eigenvalues not converged
     c_bands:  1 eigenvalues not converged
     c_bands:  2 eigenvalues not converged
     c_bands:  1 eigenvalues not converged
     c_bands:  2 eigenvalues not converged
     c_bands:  1 eigenvalues not converged
     c_bands:  1 eigenvalues not converged
     c_bands:  2 eigenvalues not converged
     c_bands:  3 eigenvalues not converged
     c_bands:  1 eigenvalues not converged
     c_bands:  1 eigenvalues not converged
     c_bands:  1 eigenvalues not converged
     c_bands:  1 eigenvalues not converged
     c_bands:  2 eigenvalues not converged
     c_bands:  2 eigenvalues not converged
     c_bands:  1 eigenvalues not converged
     c_bands:  3 eigenvalues not converged
     c_bands:  2 eigenvalues not converged
     c_bands:  2 eigenvalues not converged
     c_bands:  3 eigenvalues not converged
     c_bands:  1 eigenvalues not converged
     c_bands:  2 eigenvalues not converged
     c_bands:  2 eigenvalues not converged
     c_bands:  2 eigenvalues not converged
     c_bands:  2 eigenvalues not converged
     c_bands:  1 eigenvalues not converged
     c_bands:  2 eigenvalues not converged
     c_bands:  1 eigenvalues not converged
     c_bands:  1 eigenvalues not converged
     c_bands:  2 eigenvalues not converged
     c_bands:  1 eigenvalues not converged
     c_bands:  3 eigenvalues not converged
     c_bands:  2 eigenvalues not converged
     c_bands:  1 eigenvalues not converged
     c_bands:  1 eigenvalues not converged
     c_bands:  2 eigenvalues not converged
     c_bands:  2 eigenvalues not converged
     c_bands:  1 eigenvalues not converged
     c_bands:  3 eigenvalues not converged
     c_bands:  2 eigenvalues not converged
     c_bands:  1 eigenvalues not converged
     c_bands:  2 eigenvalues not converged
     c_bands:  2 eigenvalues not converged
     c_bands:  1 eigenvalues not converged
     c_bands:  1 eigenvalues not converged
     c_bands:  1 eigenvalues not converged
     c_bands:  1 eigenvalues not converged
     c_bands:  2 eigenvalues not converged
     c_bands:  2 eigenvalues not converged
     c_bands:  1 eigenvalues not converged
     c_bands:  1 eigenvalues not converged
     c_bands:  2 eigenvalues not converged
     c_bands:  2 eigenvalues not converged
     c_bands:  2 eigenvalues not converged
     c_bands:  1 eigenvalues not converged
     c_bands:  2 eigenvalues not converged
     c_bands:  1 eigenvalues not converged
     c_bands:  2 eigenvalues not converged
     c_bands:  2 eigenvalues not converged
     c_bands:  1 eigenvalues not converged
     c_bands:  1 eigenvalues not converged
     c_bands:  1 eigenvalues not converged
     c_bands:  2 eigenvalues not converged
     ethr =  1.00E-02,  avg # of iterations = 12.7

     total cpu time spent up to now is      142.5 secs

     total energy              =     -58.95785130 Ry
     Harris-Foulkes estimate   =     -59.10244218 Ry
     estimated scf accuracy    <       0.80060232 Ry

     total magnetization       =     0.00     0.00    -3.24 Bohr mag/cell
     absolute magnetization    =     3.24 Bohr mag/cell

     iteration #  2     ecut=   120.00 Ry     beta= 0.30
     CG style diagonalization
     ethr =  1.00E-02,  avg # of iterations =  3.0

     total cpu time spent up to now is      175.3 secs

     total energy              =     -59.25609626 Ry
     Harris-Foulkes estimate   =     -59.16225876 Ry
     estimated scf accuracy    <       0.13547233 Ry

     total magnetization       =    -0.00     0.00    -3.21 Bohr mag/cell
     absolute magnetization    =     3.21 Bohr mag/cell

     iteration #  3     ecut=   120.00 Ry     beta= 0.30
     CG style diagonalization
     ethr =  1.69E-03,  avg # of iterations =  3.0

     total cpu time spent up to now is      208.0 secs

     total energy              =     -59.33806950 Ry
     Harris-Foulkes estimate   =     -59.26663533 Ry
     estimated scf accuracy    <       0.06750925 Ry

     total magnetization       =     0.00     0.00    -2.96 Bohr mag/cell
     absolute magnetization    =     2.97 Bohr mag/cell

     iteration #  4     ecut=   120.00 Ry     beta= 0.30
     CG style diagonalization
     ethr =  8.44E-04,  avg # of iterations =  3.0

     total cpu time spent up to now is      242.8 secs

     total energy              =     -59.36133897 Ry
     Harris-Foulkes estimate   =     -59.36366375 Ry
     estimated scf accuracy    <       0.00843091 Ry

     total magnetization       =    -0.00    -0.00    -2.26 Bohr mag/cell
     absolute magnetization    =     2.41 Bohr mag/cell

     iteration #  5     ecut=   120.00 Ry     beta= 0.30
     CG style diagonalization
     c_bands:  1 eigenvalues not converged
     ethr =  1.05E-04,  avg # of iterations =  3.2

     total cpu time spent up to now is      300.2 secs

     total energy              =     -59.36241964 Ry
     Harris-Foulkes estimate   =     -59.36230076 Ry
     estimated scf accuracy    <       0.00098788 Ry

     total magnetization       =    -0.00     0.00    -2.27 Bohr mag/cell
     absolute magnetization    =     2.42 Bohr mag/cell

     iteration #  6     ecut=   120.00 Ry     beta= 0.30
     CG style diagonalization
     c_bands:  1 eigenvalues not converged
     c_bands:  1 eigenvalues not converged
     c_bands:  1 eigenvalues not converged
     c_bands:  1 eigenvalues not converged
     c_bands:  1 eigenvalues not converged
     c_bands:  1 eigenvalues not converged
     c_bands:  1 eigenvalues not converged
     c_bands:  1 eigenvalues not converged
     c_bands:  1 eigenvalues not converged
     c_bands:  1 eigenvalues not converged
     c_bands:  1 eigenvalues not converged
     c_bands:  1 eigenvalues not converged
     c_bands:  1 eigenvalues not converged
     c_bands:  1 eigenvalues not converged
     ethr =  1.23E-05,  avg # of iterations =  3.7

     total cpu time spent up to now is      354.3 secs

     total energy              =     -59.36320417 Ry
     Harris-Foulkes estimate   =     -59.36316067 Ry
     estimated scf accuracy    <       0.00003328 Ry

     total magnetization       =    -0.00     0.00    -2.21 Bohr mag/cell
     absolute magnetization    =     2.35 Bohr mag/cell

     iteration #  7     ecut=   120.00 Ry     beta= 0.30
     CG style diagonalization
     c_bands:  1 eigenvalues not converged
     c_bands:  1 eigenvalues not converged
     c_bands:  1 eigenvalues not converged
     c_bands:  1 eigenvalues not converged
     c_bands:  1 eigenvalues not converged
     c_bands:  1 eigenvalues not converged
     c_bands:  1 eigenvalues not converged
     c_bands:  1 eigenvalues not converged
     c_bands:  1 eigenvalues not converged
     c_bands:  1 eigenvalues not converged
     c_bands:  1 eigenvalues not converged
     ethr =  4.16E-07,  avg # of iterations =  3.6

     total cpu time spent up to now is      406.4 secs

     total energy              =     -59.36321071 Ry
     Harris-Foulkes estimate   =     -59.36321657 Ry
     estimated scf accuracy    <       0.00001721 Ry

     total magnetization       =    -0.00     0.00    -2.22 Bohr mag/cell
     absolute magnetization    =     2.35 Bohr mag/cell

     iteration #  8     ecut=   120.00 Ry     beta= 0.30
     CG style diagonalization
     c_bands:  1 eigenvalues not converged
     c_bands:  1 eigenvalues not converged
     ethr =  2.15E-07,  avg # of iterations =  3.3

     total cpu time spent up to now is      453.6 secs

     total energy              =     -59.36321606 Ry
     Harris-Foulkes estimate   =     -59.36323821 Ry
     estimated scf accuracy    <       0.00005484 Ry

     total magnetization       =     0.00     0.00    -2.22 Bohr mag/cell
     absolute magnetization    =     2.34 Bohr mag/cell

     iteration #  9     ecut=   120.00 Ry     beta= 0.30
     CG style diagonalization
     ethr =  2.15E-07,  avg # of iterations =  3.0

     total cpu time spent up to now is      497.8 secs

     total energy              =     -59.36322505 Ry
     Harris-Foulkes estimate   =     -59.36322512 Ry
     estimated scf accuracy    <       0.00000030 Ry

     total magnetization       =     0.00    -0.00    -2.22 Bohr mag/cell
     absolute magnetization    =     2.34 Bohr mag/cell

     iteration # 10     ecut=   120.00 Ry     beta= 0.30
     CG style diagonalization
     ethr =  3.73E-09,  avg # of iterations =  3.4

     total cpu time spent up to now is      546.1 secs

     total energy              =     -59.36322534 Ry
     Harris-Foulkes estimate   =     -59.36322538 Ry
     estimated scf accuracy    <       0.00000018 Ry

     total magnetization       =     0.00    -0.00    -2.22 Bohr mag/cell
     absolute magnetization    =     2.34 Bohr mag/cell

     iteration # 11     ecut=   120.00 Ry     beta= 0.30
     CG style diagonalization
     ethr =  2.31E-09,  avg # of iterations =  3.0

     total cpu time spent up to now is      589.6 secs

     total energy              =     -59.36322540 Ry
     Harris-Foulkes estimate   =     -59.36322539 Ry
     estimated scf accuracy    <       0.00000002 Ry

     total magnetization       =     0.00    -0.00    -2.22 Bohr mag/cell
     absolute magnetization    =     2.34 Bohr mag/cell

     iteration # 12     ecut=   120.00 Ry     beta= 0.30
     CG style diagonalization
     ethr =  2.42E-10,  avg # of iterations =  3.1

     total cpu time spent up to now is      626.2 secs

     total energy              =     -59.36322541 Ry
     Harris-Foulkes estimate   =     -59.36322541 Ry
     estimated scf accuracy    <          2.3E-10 Ry

     total magnetization       =     0.00    -0.00    -2.22 Bohr mag/cell
     absolute magnetization    =     2.34 Bohr mag/cell

     iteration # 13     ecut=   120.00 Ry     beta= 0.30
     CG style diagonalization
     ethr =  2.88E-12,  avg # of iterations =  3.4

     total cpu time spent up to now is      663.0 secs

     total energy              =     -59.36322541 Ry
     Harris-Foulkes estimate   =     -59.36322541 Ry
     estimated scf accuracy    <          5.8E-10 Ry

     total magnetization       =     0.00    -0.00    -2.22 Bohr mag/cell
     absolute magnetization    =     2.34 Bohr mag/cell

     iteration # 14     ecut=   120.00 Ry     beta= 0.30
     CG style diagonalization
     ethr =  2.88E-12,  avg # of iterations =  3.2

     total cpu time spent up to now is      698.5 secs

     total energy              =     -59.36322541 Ry
     Harris-Foulkes estimate   =     -59.36322541 Ry
     estimated scf accuracy    <          3.1E-12 Ry

     total magnetization       =     0.00    -0.00    -2.22 Bohr mag/cell
     absolute magnetization    =     2.34 Bohr mag/cell

     iteration # 15     ecut=   120.00 Ry     beta= 0.30
     CG style diagonalization
     ethr =  1.00E-13,  avg # of iterations =  3.4

     total cpu time spent up to now is      736.0 secs

     total energy              =     -59.36322541 Ry
     Harris-Foulkes estimate   =     -59.36322541 Ry
     estimated scf accuracy    <          1.5E-10 Ry

     total magnetization       =     0.00    -0.00    -2.22 Bohr mag/cell
     absolute magnetization    =     2.34 Bohr mag/cell

     iteration # 16     ecut=   120.00 Ry     beta= 0.30
     CG style diagonalization
     ethr =  1.00E-13,  avg # of iterations =  3.3

     total cpu time spent up to now is      772.5 secs

     total energy              =     -59.36322541 Ry
     Harris-Foulkes estimate   =     -59.36322541 Ry
     estimated scf accuracy    <          6.6E-12 Ry

     total magnetization       =     0.00    -0.00    -2.22 Bohr mag/cell
     absolute magnetization    =     2.34 Bohr mag/cell

     iteration # 17     ecut=   120.00 Ry     beta= 0.30
     CG style diagonalization
     ethr =  1.00E-13,  avg # of iterations =  3.0

     total cpu time spent up to now is      805.8 secs

     total energy              =     -59.36322541 Ry
     Harris-Foulkes estimate   =     -59.36322541 Ry
     estimated scf accuracy    <          4.4E-12 Ry

     total magnetization       =     0.00     0.00    -2.22 Bohr mag/cell
     absolute magnetization    =     2.34 Bohr mag/cell

     iteration # 18     ecut=   120.00 Ry     beta= 0.30
     CG style diagonalization
     ethr =  1.00E-13,  avg # of iterations =  3.0

     total cpu time spent up to now is      839.1 secs

     total energy              =     -59.36322541 Ry
     Harris-Foulkes estimate   =     -59.36322541 Ry
     estimated scf accuracy    <          4.5E-12 Ry

     total magnetization       =     0.00    -0.00    -2.22 Bohr mag/cell
     absolute magnetization    =     2.34 Bohr mag/cell

     iteration # 19     ecut=   120.00 Ry     beta= 0.30
     CG style diagonalization
     ethr =  1.00E-13,  avg # of iterations =  3.0

 ==============================================================================
     atom number    1 relative position :    0.0000   0.0000   0.0000
     charge :     6.497448
     magnetization :          0.000000    0.000000   -2.265662
     magnetization/charge:    0.000000    0.000000   -0.348700
     polar coord.: r, theta, phi [deg] :     2.265662  180.000000  360.000000

 ==============================================================================

     total cpu time spent up to now is      883.0 secs

     End of self-consistent calculation

     Number of k-points >= 100: set verbosity='high' to print the bands.

     the Fermi energy is    12.6282 ev

!    total energy              =     -59.36322541 Ry
     Harris-Foulkes estimate   =     -59.36322541 Ry
     estimated scf accuracy    <          5.2E-13 Ry

     The total energy is the sum of the following terms:

     one-electron contribution =       5.26060776 Ry
     hartree contribution      =       7.76100537 Ry
     xc contribution           =     -29.44084838 Ry
     ewald contribution        =     -42.94476644 Ry
     smearing contrib. (-TS)   =       0.00077627 Ry

     total magnetization       =     0.00     0.00    -2.22 Bohr mag/cell
     absolute magnetization    =     2.34 Bohr mag/cell

     convergence has been achieved in  19 iterations

     Writing output data file /home/edmondium/quantum/tempdir/pwscf.save/

     init_run     :      8.90s CPU      9.35s WALL (       1 calls)
     electrons    :    841.73s CPU    873.65s WALL (       1 calls)

     Called by init_run:
     wfcinit      :      8.80s CPU      9.23s WALL (       1 calls)
     potinit      :      0.03s CPU      0.03s WALL (       1 calls)
     hinit0       :      0.04s CPU      0.06s WALL (       1 calls)

     Called by electrons:
     c_bands      :    747.22s CPU    775.98s WALL (      19 calls)
     sum_band     :     93.86s CPU     97.01s WALL (      19 calls)
     v_of_rho     :      0.44s CPU      0.44s WALL (      20 calls)
     mix_rho      :      0.20s CPU      0.20s WALL (      19 calls)

     Called by c_bands:
     init_us_2    :      1.95s CPU      2.02s WALL (   13611 calls)
     ccgdiagg     :    569.02s CPU    591.15s WALL (    6631 calls)
     wfcrot       :    182.56s CPU    189.46s WALL (    6631 calls)

     Called by sum_band:

     Called by *cgdiagg:
     h_psi        :    672.18s CPU    698.21s WALL (  463469 calls)
     cdiaghg      :      1.84s CPU      1.91s WALL (    6631 calls)

     Called by h_psi:
     h_psi:calbec :     22.02s CPU     22.85s WALL (  463469 calls)
     vloc_psi     :    634.01s CPU    658.58s WALL (  463469 calls)
     add_vuspsi   :     12.66s CPU     13.22s WALL (  463469 calls)
     hs_1psi      :    500.96s CPU    520.34s WALL (  456838 calls)
     s_1psi       :     16.66s CPU     17.18s WALL (  456838 calls)

     General routines
     calbec       :     35.13s CPU     36.67s WALL (  920307 calls)
     fft          :      0.22s CPU      0.22s WALL (     494 calls)
     ffts         :      0.03s CPU      0.03s WALL (      76 calls)
     fftw         :    621.17s CPU    644.83s WALL ( 2822002 calls)

     Parallel routines
     fft_scatt_xy :     49.86s CPU     51.77s WALL ( 2822572 calls)
     fft_scatt_yz :    201.86s CPU    209.35s WALL ( 2822572 calls)

     PWSCF        :  14m11.20s CPU  14m45.03s WALL


   This run was terminated on:  13:46:12  31Jan2021            

=------------------------------------------------------------------------------=
   JOB DONE.
=------------------------------------------------------------------------------=
