
     Program PWSCF v.6.5 starts on 13Jan2021 at 16: 0:42 

     This program is part of the open-source Quantum ESPRESSO suite
     for quantum simulation of materials; please cite
         "P. Giannozzi et al., J. Phys.:Condens. Matter 21 395502 (2009);
         "P. Giannozzi et al., J. Phys.:Condens. Matter 29 465901 (2017);
          URL http://www.quantum-espresso.org", 
     in publications or presentations arising from this work. More details at
     http://www.quantum-espresso.org/quote

     Parallel version (MPI), running on     2 processors

     MPI processes distributed on     1 nodes
     R & G space division:  proc/nbgrp/npool/nimage =       2
     Waiting for input...
     Reading input from standard input

     Current dimensions of program PWSCF are:
     Max number of different atomic species (ntypx) = 10
     Max number of k-points (npk) =  40000
     Max angular momentum in pseudopotentials (lmaxx) =  3
     WARNING: atomic wfc #  5 for atom type 1 has zero norm

     Fixed quantization axis for GGA:    -0.000000   -0.000000   -1.000000

     Subspace diagonalization in iterative solution of the eigenvalue problem:
     a serial algorithm will be used


     Parallelization info
     --------------------
     sticks:   dense  smooth     PW     G-vecs:    dense   smooth      PW
     Min         398     398    120                 7085     7085    1173
     Max         399     399    121                 7086     7086    1174
     Sum         797     797    241                14171    14171    2347



     bravais-lattice index     =            3
     lattice parameter (alat)  =       5.4235  a.u.
     unit-cell volume          =      79.7644 (a.u.)^3
     number of atoms/cell      =            1
     number of atomic types    =            1
     number of electrons       =         8.00
     number of Kohn-Sham states=           25
     kinetic-energy cutoff     =     120.0000  Ry
     charge density cutoff     =     480.0000  Ry
     convergence threshold     =      1.0E-12
     mixing beta               =       0.3000
     number of iterations used =            8  plain     mixing
     Exchange-correlation=  SLA  PW   PBX  PBC
                           (   1   4   3   4   0   0   0)
     Noncollinear calculation with spin-orbit


     celldm(1)=   5.423500  celldm(2)=   0.000000  celldm(3)=   0.000000
     celldm(4)=   0.000000  celldm(5)=   0.000000  celldm(6)=   0.000000

     crystal axes: (cart. coord. in units of alat)
               a(1) = (   0.500000   0.500000   0.500000 )  
               a(2) = (  -0.500000   0.500000   0.500000 )  
               a(3) = (  -0.500000  -0.500000   0.500000 )  

     reciprocal axes: (cart. coord. in units 2 pi/alat)
               b(1) = (  1.000000  0.000000  1.000000 )  
               b(2) = ( -1.000000  1.000000  0.000000 )  
               b(3) = (  0.000000 -1.000000  1.000000 )  


     PseudoPot. # 1 for Fe read from file:
     /home/edmondium/Documents/qe-6.7/pseudo/Fe.jry.pbe.UPF
     MD5 check sum: 78c02686e98e189cfdefd3b0caba24c3
     Pseudo is Norm-conserving + core correction, Zval =  8.0
     Generated by new atomic code, or converted to UPF format
     Using radial grid of 1165 points,  4 beta functions with: 
                l(1) =   2
                l(2) =   2
                l(3) =   1
                l(4) =   1

     atomic species   valence    mass     pseudopotential
        Fe             8.00    55.85000     Fe( 1.00)

     16 Sym. Ops., with inversion, found



   Cartesian axes

     site n.     atom                  positions (alat units)
         1           Fe  tau(   1) = (   0.0000000   0.0000000   0.0000000  )

     number of k points=   349  Marzari-Vanderbilt smearing, width (Ry)=  0.0200

     Number of k-points >= 100: set verbosity='high' to print them.

     Dense  grid:    14171 G-vectors     FFT dimensions: (  36,  36,  36)

     Estimated max dynamical RAM per process >     251.99 MB

     Estimated total dynamical RAM >     503.98 MB
     Generating pointlists ...
     new r_m :   0.3572 (alat units)  1.9375 (a.u.) for type    1

     Initial potential from superposition of free atoms

     starting charge    7.98807, renormalised to    8.00000

 ==============================================================================
     atom number    1 relative position :    0.0000   0.0000   0.0000
     charge :     6.761094
     magnetization :          0.000000    0.000000   -6.761094
     magnetization/charge:    0.000000    0.000000   -1.000000
     polar coord.: r, theta, phi [deg] :     6.761094  180.000000  360.000000

 ==============================================================================
     Starting wfcs are random

     total cpu time spent up to now is       41.6 secs

     Self-consistent Calculation

     iteration #  1     ecut=   120.00 Ry     beta= 0.30
     CG style diagonalization
     c_bands:  1 eigenvalues not converged
     c_bands:  3 eigenvalues not converged
     c_bands:  2 eigenvalues not converged
     c_bands:  1 eigenvalues not converged
     c_bands:  4 eigenvalues not converged
     c_bands:  2 eigenvalues not converged
     c_bands:  2 eigenvalues not converged
     c_bands:  2 eigenvalues not converged
     c_bands:  1 eigenvalues not converged
     c_bands:  2 eigenvalues not converged
     c_bands:  1 eigenvalues not converged
     c_bands:  3 eigenvalues not converged
     c_bands:  1 eigenvalues not converged
     c_bands:  1 eigenvalues not converged
     c_bands:  3 eigenvalues not converged
     c_bands:  2 eigenvalues not converged
     c_bands:  1 eigenvalues not converged
     c_bands:  1 eigenvalues not converged
     c_bands:  3 eigenvalues not converged
     c_bands:  1 eigenvalues not converged
     c_bands:  2 eigenvalues not converged
     c_bands:  1 eigenvalues not converged
     c_bands:  3 eigenvalues not converged
     c_bands:  1 eigenvalues not converged
     c_bands:  1 eigenvalues not converged
     c_bands:  1 eigenvalues not converged
     c_bands:  2 eigenvalues not converged
     c_bands:  2 eigenvalues not converged
     c_bands:  1 eigenvalues not converged
     c_bands:  2 eigenvalues not converged
     c_bands:  1 eigenvalues not converged
     c_bands:  3 eigenvalues not converged
     c_bands:  3 eigenvalues not converged
     c_bands:  4 eigenvalues not converged
     c_bands:  1 eigenvalues not converged
     c_bands:  1 eigenvalues not converged
     c_bands:  1 eigenvalues not converged
     c_bands:  1 eigenvalues not converged
     c_bands:  2 eigenvalues not converged
     c_bands:  1 eigenvalues not converged
     c_bands:  1 eigenvalues not converged
     c_bands:  2 eigenvalues not converged
     c_bands:  2 eigenvalues not converged
     c_bands:  2 eigenvalues not converged
     c_bands:  1 eigenvalues not converged
     c_bands:  1 eigenvalues not converged
     c_bands:  1 eigenvalues not converged
     c_bands:  2 eigenvalues not converged
     c_bands:  1 eigenvalues not converged
     c_bands:  1 eigenvalues not converged
     c_bands:  1 eigenvalues not converged
     c_bands:  1 eigenvalues not converged
     c_bands:  1 eigenvalues not converged
     c_bands:  1 eigenvalues not converged
     c_bands:  2 eigenvalues not converged
     c_bands:  2 eigenvalues not converged
     c_bands:  1 eigenvalues not converged
     c_bands:  2 eigenvalues not converged
     c_bands:  1 eigenvalues not converged
     c_bands:  1 eigenvalues not converged
     c_bands:  2 eigenvalues not converged
     c_bands:  2 eigenvalues not converged
     c_bands:  2 eigenvalues not converged
     c_bands:  2 eigenvalues not converged
     c_bands:  1 eigenvalues not converged
     c_bands:  1 eigenvalues not converged
     c_bands:  2 eigenvalues not converged
     c_bands:  2 eigenvalues not converged
     c_bands:  1 eigenvalues not converged
     c_bands:  1 eigenvalues not converged
     c_bands:  1 eigenvalues not converged
     c_bands:  1 eigenvalues not converged
     c_bands:  1 eigenvalues not converged
     c_bands:  1 eigenvalues not converged
     c_bands:  2 eigenvalues not converged
     c_bands:  1 eigenvalues not converged
     c_bands:  1 eigenvalues not converged
     c_bands:  3 eigenvalues not converged
     c_bands:  1 eigenvalues not converged
     c_bands:  1 eigenvalues not converged
     c_bands:  1 eigenvalues not converged
     c_bands:  2 eigenvalues not converged
     c_bands:  3 eigenvalues not converged
     c_bands:  1 eigenvalues not converged
     c_bands:  2 eigenvalues not converged
     c_bands:  2 eigenvalues not converged
     c_bands:  2 eigenvalues not converged
     c_bands:  1 eigenvalues not converged
     c_bands:  2 eigenvalues not converged
     c_bands:  1 eigenvalues not converged
     c_bands:  1 eigenvalues not converged
     c_bands:  2 eigenvalues not converged
     c_bands:  2 eigenvalues not converged
     c_bands:  1 eigenvalues not converged
     c_bands:  3 eigenvalues not converged
     c_bands:  1 eigenvalues not converged
     c_bands:  1 eigenvalues not converged
     c_bands:  2 eigenvalues not converged
     c_bands:  2 eigenvalues not converged
     c_bands:  3 eigenvalues not converged
     c_bands:  3 eigenvalues not converged
     c_bands:  2 eigenvalues not converged
     c_bands:  2 eigenvalues not converged
     c_bands:  1 eigenvalues not converged
     c_bands:  2 eigenvalues not converged
     c_bands:  2 eigenvalues not converged
     c_bands:  2 eigenvalues not converged
     c_bands:  2 eigenvalues not converged
     c_bands:  1 eigenvalues not converged
     c_bands:  1 eigenvalues not converged
     c_bands:  2 eigenvalues not converged
     c_bands:  2 eigenvalues not converged
     c_bands:  1 eigenvalues not converged
     c_bands:  1 eigenvalues not converged
     c_bands:  3 eigenvalues not converged
     c_bands:  1 eigenvalues not converged
     c_bands:  3 eigenvalues not converged
     c_bands:  2 eigenvalues not converged
     c_bands:  1 eigenvalues not converged
     c_bands:  1 eigenvalues not converged
     c_bands:  2 eigenvalues not converged
     c_bands:  1 eigenvalues not converged
     c_bands:  2 eigenvalues not converged
     c_bands:  3 eigenvalues not converged
     c_bands:  1 eigenvalues not converged
     c_bands:  3 eigenvalues not converged
     c_bands:  2 eigenvalues not converged
     c_bands:  1 eigenvalues not converged
     c_bands:  2 eigenvalues not converged
     c_bands:  2 eigenvalues not converged
     c_bands:  1 eigenvalues not converged
     c_bands:  1 eigenvalues not converged
     c_bands:  1 eigenvalues not converged
     c_bands:  2 eigenvalues not converged
     c_bands:  1 eigenvalues not converged
     c_bands:  3 eigenvalues not converged
     c_bands:  2 eigenvalues not converged
     c_bands:  2 eigenvalues not converged
     c_bands:  2 eigenvalues not converged
     c_bands:  1 eigenvalues not converged
     c_bands:  4 eigenvalues not converged
     c_bands:  2 eigenvalues not converged
     c_bands:  2 eigenvalues not converged
     c_bands:  1 eigenvalues not converged
     c_bands:  1 eigenvalues not converged
     c_bands:  3 eigenvalues not converged
     c_bands:  2 eigenvalues not converged
     c_bands:  1 eigenvalues not converged
     c_bands:  1 eigenvalues not converged
     c_bands:  1 eigenvalues not converged
     c_bands:  3 eigenvalues not converged
     c_bands:  1 eigenvalues not converged
     c_bands:  3 eigenvalues not converged
     c_bands:  2 eigenvalues not converged
     c_bands:  1 eigenvalues not converged
     c_bands:  1 eigenvalues not converged
     c_bands:  1 eigenvalues not converged
     c_bands:  1 eigenvalues not converged
     c_bands:  2 eigenvalues not converged
     c_bands:  1 eigenvalues not converged
     c_bands:  1 eigenvalues not converged
     c_bands:  1 eigenvalues not converged
     c_bands:  1 eigenvalues not converged
     c_bands:  2 eigenvalues not converged
     c_bands:  1 eigenvalues not converged
     c_bands:  3 eigenvalues not converged
     c_bands:  1 eigenvalues not converged
     c_bands:  1 eigenvalues not converged
     c_bands:  1 eigenvalues not converged
     c_bands:  2 eigenvalues not converged
     c_bands:  1 eigenvalues not converged
     c_bands:  2 eigenvalues not converged
     c_bands:  1 eigenvalues not converged
     c_bands:  1 eigenvalues not converged
     c_bands:  1 eigenvalues not converged
     c_bands:  2 eigenvalues not converged
     c_bands:  2 eigenvalues not converged
     c_bands:  1 eigenvalues not converged
     c_bands:  1 eigenvalues not converged
     c_bands:  2 eigenvalues not converged
     c_bands:  3 eigenvalues not converged
     c_bands:  2 eigenvalues not converged
     c_bands:  1 eigenvalues not converged
     c_bands:  2 eigenvalues not converged
     c_bands:  1 eigenvalues not converged
     c_bands:  3 eigenvalues not converged
     c_bands:  1 eigenvalues not converged
     c_bands:  2 eigenvalues not converged
     c_bands:  1 eigenvalues not converged
     c_bands:  1 eigenvalues not converged
     c_bands:  1 eigenvalues not converged
     c_bands:  2 eigenvalues not converged
     c_bands:  3 eigenvalues not converged
     c_bands:  3 eigenvalues not converged
     c_bands:  2 eigenvalues not converged
     c_bands:  1 eigenvalues not converged
     c_bands:  1 eigenvalues not converged
     c_bands:  3 eigenvalues not converged
     c_bands:  2 eigenvalues not converged
     c_bands:  2 eigenvalues not converged
     c_bands:  1 eigenvalues not converged
     c_bands:  1 eigenvalues not converged
     c_bands:  1 eigenvalues not converged
     c_bands:  1 eigenvalues not converged
     c_bands:  1 eigenvalues not converged
     c_bands:  2 eigenvalues not converged
     c_bands:  2 eigenvalues not converged
     c_bands:  3 eigenvalues not converged
     c_bands:  1 eigenvalues not converged
     c_bands:  2 eigenvalues not converged
     c_bands:  1 eigenvalues not converged
     c_bands:  2 eigenvalues not converged
     c_bands:  2 eigenvalues not converged
     c_bands:  1 eigenvalues not converged
     c_bands:  2 eigenvalues not converged
     c_bands:  1 eigenvalues not converged
     c_bands:  1 eigenvalues not converged
     ethr =  1.00E-02,  avg # of iterations = 12.7

     total cpu time spent up to now is      533.6 secs

     total energy              =     -58.95506499 Ry
     Harris-Foulkes estimate   =     -59.10011701 Ry
     estimated scf accuracy    <       0.80372437 Ry

     total magnetization       =     0.00     0.00    -3.23 Bohr mag/cell
     absolute magnetization    =     3.23 Bohr mag/cell

     iteration #  2     ecut=   120.00 Ry     beta= 0.30
     CG style diagonalization
     ethr =  1.00E-02,  avg # of iterations =  3.0

     total cpu time spent up to now is      659.7 secs

     total energy              =     -59.25616525 Ry
     Harris-Foulkes estimate   =     -59.16253223 Ry
     estimated scf accuracy    <       0.13513576 Ry

     total magnetization       =    -0.00     0.00    -3.21 Bohr mag/cell
     absolute magnetization    =     3.21 Bohr mag/cell

     iteration #  3     ecut=   120.00 Ry     beta= 0.30
     CG style diagonalization
     ethr =  1.69E-03,  avg # of iterations =  3.0

     total cpu time spent up to now is      787.5 secs

     total energy              =     -59.33803553 Ry
     Harris-Foulkes estimate   =     -59.26663645 Ry
     estimated scf accuracy    <       0.06750851 Ry

     total magnetization       =    -0.00     0.00    -2.96 Bohr mag/cell
     absolute magnetization    =     2.97 Bohr mag/cell

     iteration #  4     ecut=   120.00 Ry     beta= 0.30
     CG style diagonalization
     ethr =  8.44E-04,  avg # of iterations =  3.0

     total cpu time spent up to now is      913.7 secs

     total energy              =     -59.36134241 Ry
     Harris-Foulkes estimate   =     -59.36371575 Ry
     estimated scf accuracy    <       0.00862938 Ry

     total magnetization       =     0.00    -0.00    -2.26 Bohr mag/cell
     absolute magnetization    =     2.41 Bohr mag/cell

     iteration #  5     ecut=   120.00 Ry     beta= 0.30
     CG style diagonalization
     c_bands:  1 eigenvalues not converged
     ethr =  1.08E-04,  avg # of iterations =  3.2

     total cpu time spent up to now is     1046.5 secs

     total energy              =     -59.36240927 Ry
     Harris-Foulkes estimate   =     -59.36230539 Ry
     estimated scf accuracy    <       0.00103127 Ry

     total magnetization       =    -0.00     0.00    -2.27 Bohr mag/cell
     absolute magnetization    =     2.42 Bohr mag/cell

     iteration #  6     ecut=   120.00 Ry     beta= 0.30
     CG style diagonalization
     c_bands:  1 eigenvalues not converged
     c_bands:  1 eigenvalues not converged
     c_bands:  1 eigenvalues not converged
     c_bands:  1 eigenvalues not converged
     c_bands:  1 eigenvalues not converged
     c_bands:  1 eigenvalues not converged
     c_bands:  1 eigenvalues not converged
     c_bands:  1 eigenvalues not converged
     c_bands:  1 eigenvalues not converged
     c_bands:  1 eigenvalues not converged
     c_bands:  1 eigenvalues not converged
     ethr =  1.29E-05,  avg # of iterations =  3.7

     total cpu time spent up to now is     1201.4 secs

     total energy              =     -59.36320280 Ry
     Harris-Foulkes estimate   =     -59.36315828 Ry
     estimated scf accuracy    <       0.00004892 Ry

     total magnetization       =     0.00     0.00    -2.21 Bohr mag/cell
     absolute magnetization    =     2.35 Bohr mag/cell

     iteration #  7     ecut=   120.00 Ry     beta= 0.30
     CG style diagonalization
     c_bands:  1 eigenvalues not converged
     c_bands:  1 eigenvalues not converged
     c_bands:  1 eigenvalues not converged
     c_bands:  1 eigenvalues not converged
     c_bands:  1 eigenvalues not converged
     c_bands:  1 eigenvalues not converged
     c_bands:  1 eigenvalues not converged
     c_bands:  1 eigenvalues not converged
     c_bands:  1 eigenvalues not converged
     c_bands:  1 eigenvalues not converged
     c_bands:  1 eigenvalues not converged
     c_bands:  1 eigenvalues not converged
     c_bands:  1 eigenvalues not converged
     c_bands:  1 eigenvalues not converged
     c_bands:  1 eigenvalues not converged
     ethr =  6.11E-07,  avg # of iterations =  3.6

     total cpu time spent up to now is     1345.1 secs

     total energy              =     -59.36320943 Ry
     Harris-Foulkes estimate   =     -59.36321636 Ry
     estimated scf accuracy    <       0.00001921 Ry

     total magnetization       =     0.00     0.00    -2.22 Bohr mag/cell
     absolute magnetization    =     2.35 Bohr mag/cell

     iteration #  8     ecut=   120.00 Ry     beta= 0.30
     CG style diagonalization
     c_bands:  1 eigenvalues not converged
     c_bands:  1 eigenvalues not converged
     ethr =  2.40E-07,  avg # of iterations =  3.3

     total cpu time spent up to now is     1484.6 secs

     total energy              =     -59.36321582 Ry
     Harris-Foulkes estimate   =     -59.36323723 Ry
     estimated scf accuracy    <       0.00005354 Ry

     total magnetization       =     0.00    -0.00    -2.22 Bohr mag/cell
     absolute magnetization    =     2.34 Bohr mag/cell

     iteration #  9     ecut=   120.00 Ry     beta= 0.30
     CG style diagonalization
     ethr =  2.40E-07,  avg # of iterations =  3.0

     total cpu time spent up to now is     1606.6 secs

     total energy              =     -59.36322513 Ry
     Harris-Foulkes estimate   =     -59.36322515 Ry
     estimated scf accuracy    <       0.00000024 Ry

     total magnetization       =    -0.00     0.00    -2.22 Bohr mag/cell
     absolute magnetization    =     2.34 Bohr mag/cell

     iteration # 10     ecut=   120.00 Ry     beta= 0.30
     CG style diagonalization
     ethr =  2.94E-09,  avg # of iterations =  3.4

     total cpu time spent up to now is     1758.4 secs

     total energy              =     -59.36322537 Ry
     Harris-Foulkes estimate   =     -59.36322538 Ry
     estimated scf accuracy    <       0.00000006 Ry

     total magnetization       =     0.00    -0.00    -2.22 Bohr mag/cell
     absolute magnetization    =     2.34 Bohr mag/cell

     iteration # 11     ecut=   120.00 Ry     beta= 0.30
     CG style diagonalization
     ethr =  7.40E-10,  avg # of iterations =  3.0

     total cpu time spent up to now is     1887.5 secs

     total energy              =     -59.36322540 Ry
     Harris-Foulkes estimate   =     -59.36322539 Ry
     estimated scf accuracy    <       0.00000002 Ry

     total magnetization       =    -0.00     0.00    -2.22 Bohr mag/cell
     absolute magnetization    =     2.34 Bohr mag/cell

     iteration # 12     ecut=   120.00 Ry     beta= 0.30
     CG style diagonalization
     ethr =  1.93E-10,  avg # of iterations =  3.1

     total cpu time spent up to now is     2014.8 secs

     total energy              =     -59.36322541 Ry
     Harris-Foulkes estimate   =     -59.36322541 Ry
     estimated scf accuracy    <          8.9E-09 Ry

     total magnetization       =     0.00    -0.00    -2.22 Bohr mag/cell
     absolute magnetization    =     2.34 Bohr mag/cell

     iteration # 13     ecut=   120.00 Ry     beta= 0.30
     CG style diagonalization
     ethr =  1.11E-10,  avg # of iterations =  3.0

     total cpu time spent up to now is     2141.5 secs

     total energy              =     -59.36322541 Ry
     Harris-Foulkes estimate   =     -59.36322541 Ry
     estimated scf accuracy    <          6.8E-10 Ry

     total magnetization       =     0.00     0.00    -2.22 Bohr mag/cell
     absolute magnetization    =     2.34 Bohr mag/cell

     iteration # 14     ecut=   120.00 Ry     beta= 0.30
     CG style diagonalization
     ethr =  8.54E-12,  avg # of iterations =  3.0

     total cpu time spent up to now is     2270.7 secs

     total energy              =     -59.36322541 Ry
     Harris-Foulkes estimate   =     -59.36322541 Ry
     estimated scf accuracy    <          4.3E-11 Ry

     total magnetization       =     0.00    -0.00    -2.22 Bohr mag/cell
     absolute magnetization    =     2.34 Bohr mag/cell

     iteration # 15     ecut=   120.00 Ry     beta= 0.30
     CG style diagonalization
     ethr =  5.33E-13,  avg # of iterations =  3.3

     total cpu time spent up to now is     2406.4 secs

     total energy              =     -59.36322541 Ry
     Harris-Foulkes estimate   =     -59.36322541 Ry
     estimated scf accuracy    <          1.3E-11 Ry

     total magnetization       =     0.00     0.00    -2.22 Bohr mag/cell
     absolute magnetization    =     2.34 Bohr mag/cell

     iteration # 16     ecut=   120.00 Ry     beta= 0.30
     CG style diagonalization
     ethr =  1.63E-13,  avg # of iterations =  3.0

     total cpu time spent up to now is     2530.1 secs

     total energy              =     -59.36322541 Ry
     Harris-Foulkes estimate   =     -59.36322541 Ry
     estimated scf accuracy    <          6.6E-12 Ry

     total magnetization       =     0.00    -0.00    -2.22 Bohr mag/cell
     absolute magnetization    =     2.34 Bohr mag/cell

     iteration # 17     ecut=   120.00 Ry     beta= 0.30
     CG style diagonalization
     ethr =  1.00E-13,  avg # of iterations =  3.0

 ==============================================================================
     atom number    1 relative position :    0.0000   0.0000   0.0000
     charge :     6.497447
     magnetization :          0.000000   -0.000000   -2.265662
     magnetization/charge:    0.000000   -0.000000   -0.348700
     polar coord.: r, theta, phi [deg] :     2.265662  180.000000  360.000000

 ==============================================================================

     total cpu time spent up to now is     2659.3 secs

     End of self-consistent calculation

     Number of k-points >= 100: set verbosity='high' to print the bands.

     the Fermi energy is    12.6282 ev

!    total energy              =     -59.36322541 Ry
     Harris-Foulkes estimate   =     -59.36322541 Ry
     estimated scf accuracy    <          9.2E-13 Ry

     The total energy is the sum of the following terms:

     one-electron contribution =       5.26060830 Ry
     hartree contribution      =       7.76100454 Ry
     xc contribution           =     -29.44084809 Ry
     ewald contribution        =     -42.94476644 Ry
     smearing contrib. (-TS)   =       0.00077627 Ry

     total magnetization       =     0.00    -0.00    -2.22 Bohr mag/cell
     absolute magnetization    =     2.34 Bohr mag/cell

     convergence has been achieved in  17 iterations

     Writing output data file /home/edmondium/Documents/qe-6.7/tempdir/pwscf.save/

     init_run     :     39.17s CPU     40.99s WALL (       1 calls)
     electrons    :   2537.71s CPU   2617.75s WALL (       1 calls)

     Called by init_run:
     wfcinit      :     38.67s CPU     40.19s WALL (       1 calls)
     potinit      :      0.16s CPU      0.28s WALL (       1 calls)
     hinit0       :      0.25s CPU      0.38s WALL (       1 calls)

     Called by electrons:
     c_bands      :   2257.15s CPU   2328.48s WALL (      17 calls)
     sum_band     :    278.78s CPU    287.33s WALL (      17 calls)
     v_of_rho     :      1.53s CPU      1.57s WALL (      18 calls)
     mix_rho      :      0.34s CPU      0.42s WALL (      17 calls)

     Called by c_bands:
     init_us_2    :      7.39s CPU      7.57s WALL (   12215 calls)
     ccgdiagg     :   1706.02s CPU   1761.16s WALL (    5933 calls)
     wfcrot       :    577.66s CPU    595.00s WALL (    5933 calls)

     Called by sum_band:

     Called by *cgdiagg:
     h_psi        :   1917.30s CPU   1980.15s WALL (  418292 calls)
     cdiaghg      :      3.84s CPU      4.06s WALL (    5933 calls)

     Called by h_psi:
     h_psi:calbec :     93.84s CPU     96.92s WALL (  418292 calls)
     vloc_psi     :   1755.75s CPU   1813.55s WALL (  418292 calls)
     add_vuspsi   :     58.50s CPU     60.42s WALL (  418292 calls)
     hs_1psi      :   1437.19s CPU   1483.45s WALL (  412359 calls)
     s_1psi       :     59.95s CPU     61.55s WALL (  412359 calls)

     General routines
     calbec       :    145.69s CPU    151.11s WALL (  830651 calls)
     fft          :      0.45s CPU      0.56s WALL (     444 calls)
     ffts         :      0.06s CPU      0.06s WALL (      68 calls)
     fftw         :   1585.72s CPU   1636.50s WALL ( 2539386 calls)

     Parallel routines
     fft_scatt_xy :    223.25s CPU    230.28s WALL ( 2539898 calls)
     fft_scatt_yz :    248.76s CPU    258.41s WALL ( 2539898 calls)

     PWSCF        :  42m57.72s CPU  44m36.76s WALL


   This run was terminated on:  16:45:19  13Jan2021            

=------------------------------------------------------------------------------=
   JOB DONE.
=------------------------------------------------------------------------------=
