
     Program PWSCF v.6.5 starts on  4Jan2021 at 16: 1:14 

     This program is part of the open-source Quantum ESPRESSO suite
     for quantum simulation of materials; please cite
         "P. Giannozzi et al., J. Phys.:Condens. Matter 21 395502 (2009);
         "P. Giannozzi et al., J. Phys.:Condens. Matter 29 465901 (2017);
          URL http://www.quantum-espresso.org", 
     in publications or presentations arising from this work. More details at
     http://www.quantum-espresso.org/quote

     Parallel version (MPI), running on     2 processors

     MPI processes distributed on     1 nodes
     R & G space division:  proc/nbgrp/npool/nimage =       2
     Waiting for input...
     Reading input from standard input

     Current dimensions of program PWSCF are:
     Max number of different atomic species (ntypx) = 10
     Max number of k-points (npk) =  40000
     Max angular momentum in pseudopotentials (lmaxx) =  3

     Atomic positions and unit cell read from directory:
     /home/edmondium/Documents/qe-6.7/tempdir/pwscf.save/                                                                                                                                                                                                            


     Subspace diagonalization in iterative solution of the eigenvalue problem:
     a serial algorithm will be used


     Parallelization info
     --------------------
     sticks:   dense  smooth     PW     G-vecs:    dense   smooth      PW
     Min         958     958    311                26510    26510    4953
     Max         959     959    312                26511    26511    4956
     Sum        1917    1917    623                53021    53021    9909



     bravais-lattice index     =            3
     lattice parameter (alat)  =      16.8422  a.u.
     unit-cell volume          =    2388.7199 (a.u.)^3
     number of atoms/cell      =            1
     number of atomic types    =            1
     number of electrons       =        15.00
     number of Kohn-Sham states=           28
     kinetic-energy cutoff     =      30.0000  Ry
     charge density cutoff     =     120.0000  Ry
     Exchange-correlation= SLA PW PBE PBE
                           (   1   4   3   4   0   0   0)

     celldm(1)=  16.842184  celldm(2)=   0.000000  celldm(3)=   0.000000
     celldm(4)=   0.000000  celldm(5)=   0.000000  celldm(6)=   0.000000

     crystal axes: (cart. coord. in units of alat)
               a(1) = (   0.500000   0.500000   0.500000 )  
               a(2) = (  -0.500000   0.500000   0.500000 )  
               a(3) = (  -0.500000  -0.500000   0.500000 )  

     reciprocal axes: (cart. coord. in units 2 pi/alat)
               b(1) = (  1.000000  0.000000  1.000000 )  
               b(2) = ( -1.000000  1.000000  0.000000 )  
               b(3) = (  0.000000 -1.000000  1.000000 )  


     PseudoPot. # 1 for Mn read from file:
     /home/edmondium/Documents/qe-6.7/pseudo/Mn.pbe-sp-van.UPF
     MD5 check sum: bb92fce5fbcd1f885716158fe0993e5c
     Pseudo is Ultrasoft, Zval = 15.0
     Generated by new atomic code, or converted to UPF format
     Using radial grid of  879 points,  6 beta functions with: 
                l(1) =   0
                l(2) =   0
                l(3) =   1
                l(4) =   1
                l(5) =   2
                l(6) =   2
     Q(r) pseudized with  8 coefficients,  rinner =    1.000   1.000   1.000
                                                       1.000   1.000

     atomic species   valence    mass     pseudopotential
        Mn            15.00    54.93804     Mn( 1.00)

     No symmetry found



   Cartesian axes

     site n.     atom                  positions (alat units)
         1           Mn  tau(   1) = (   0.0000000   0.0000000   0.0000000  )

     number of k points=   210

     Number of k-points >= 100: set verbosity='high' to print them.

     Dense  grid:    53021 G-vectors     FFT dimensions: (  54,  54,  54)

     Estimated max dynamical RAM per process >      89.28 MB

     Estimated total dynamical RAM >     178.55 MB

     The potential is recalculated from file :
     /home/edmondium/Documents/qe-6.7/tempdir/pwscf.save/charge-density


     negative rho (up, down):  1.400E-03 0.000E+00
     Starting wfcs are random

     Band Structure Calculation
     CG style diagonalization
     c_bands:  1 eigenvalues not converged
     c_bands:  1 eigenvalues not converged
     c_bands:  1 eigenvalues not converged
     c_bands:  1 eigenvalues not converged
     c_bands:  1 eigenvalues not converged
     c_bands:  1 eigenvalues not converged
     c_bands:  1 eigenvalues not converged
     c_bands:  1 eigenvalues not converged
     c_bands:  1 eigenvalues not converged
     c_bands:  1 eigenvalues not converged
     c_bands:  1 eigenvalues not converged
     c_bands:  1 eigenvalues not converged
     c_bands:  1 eigenvalues not converged
     c_bands:  1 eigenvalues not converged
     c_bands:  1 eigenvalues not converged
     c_bands:  1 eigenvalues not converged
     c_bands:  1 eigenvalues not converged
     c_bands:  1 eigenvalues not converged
     c_bands:  1 eigenvalues not converged
     c_bands:  1 eigenvalues not converged
     c_bands:  1 eigenvalues not converged
     c_bands:  1 eigenvalues not converged
     c_bands:  1 eigenvalues not converged
     c_bands:  1 eigenvalues not converged
     c_bands:  1 eigenvalues not converged
     c_bands:  1 eigenvalues not converged
     c_bands:  1 eigenvalues not converged
     c_bands:  1 eigenvalues not converged
     c_bands:  1 eigenvalues not converged
     c_bands:  1 eigenvalues not converged
     c_bands:  1 eigenvalues not converged
     c_bands:  1 eigenvalues not converged
     c_bands:  1 eigenvalues not converged
     c_bands:  1 eigenvalues not converged
     c_bands:  1 eigenvalues not converged
     c_bands:  1 eigenvalues not converged
     c_bands:  1 eigenvalues not converged
     c_bands:  1 eigenvalues not converged
     c_bands:  1 eigenvalues not converged
     c_bands:  1 eigenvalues not converged
     c_bands:  1 eigenvalues not converged
     c_bands:  1 eigenvalues not converged
     c_bands:  1 eigenvalues not converged
     c_bands:  1 eigenvalues not converged
     c_bands:  1 eigenvalues not converged
     c_bands:  1 eigenvalues not converged
     c_bands:  1 eigenvalues not converged
     c_bands:  1 eigenvalues not converged
     c_bands:  1 eigenvalues not converged
     c_bands:  1 eigenvalues not converged
     c_bands:  1 eigenvalues not converged
     c_bands:  1 eigenvalues not converged
     c_bands:  1 eigenvalues not converged
     c_bands:  1 eigenvalues not converged
     c_bands:  1 eigenvalues not converged
     c_bands:  1 eigenvalues not converged
     c_bands:  1 eigenvalues not converged
     c_bands:  1 eigenvalues not converged
     c_bands:  1 eigenvalues not converged
     c_bands:  1 eigenvalues not converged
     c_bands:  1 eigenvalues not converged
     c_bands:  1 eigenvalues not converged
     c_bands:  1 eigenvalues not converged
     c_bands:  1 eigenvalues not converged
     c_bands:  1 eigenvalues not converged
     c_bands:  2 eigenvalues not converged
     c_bands:  1 eigenvalues not converged
     c_bands:  1 eigenvalues not converged
     c_bands:  1 eigenvalues not converged
     c_bands:  1 eigenvalues not converged
     c_bands:  1 eigenvalues not converged
     c_bands:  1 eigenvalues not converged
     c_bands:  1 eigenvalues not converged
     c_bands:  1 eigenvalues not converged
     c_bands:  1 eigenvalues not converged
     c_bands:  1 eigenvalues not converged
     c_bands:  1 eigenvalues not converged
     c_bands:  1 eigenvalues not converged
     c_bands:  1 eigenvalues not converged
     c_bands:  1 eigenvalues not converged
     c_bands:  1 eigenvalues not converged
     c_bands:  3 eigenvalues not converged
     c_bands:  1 eigenvalues not converged
     c_bands:  1 eigenvalues not converged
     c_bands:  1 eigenvalues not converged
     c_bands:  1 eigenvalues not converged
     c_bands:  1 eigenvalues not converged
     c_bands:  1 eigenvalues not converged
     c_bands:  1 eigenvalues not converged
     c_bands:  1 eigenvalues not converged
     c_bands:  1 eigenvalues not converged
     c_bands:  1 eigenvalues not converged
     c_bands:  1 eigenvalues not converged

     ethr =  6.67E-13,  avg # of iterations = 64.1

     total cpu time spent up to now is     3641.6 secs

     End of band structure calculation

     Number of k-points >= 100: set verbosity='high' to print the bands.

     highest occupied, lowest unoccupied level (ev):    -3.5563   -3.5611



               ==================================================
                            POLARIZATION CALCULATION
                         !!! NOT THOROUGHLY TESTED !!!
               --------------------------------------------------


                     K-POINTS STRINGS USED IN CALCULATIONS
                     ~~~~~~~~~~~~~~~~~~~~~~~~~~~~~~~~~~~~~

       G-vector along string (2 pi/a):  0.00000 -1.00000  1.00000
       Modulus of the vector (1/bohr):  0.52759
       Number of k-points per string:   7
       Number of different strings  :  30


                               IONIC POLARIZATION
                               ~~~~~~~~~~~~~~~~~~

  ============================================================================
    Ion    Species    Charge              Position                Phase
  ----------------------------------------------------------------------------
     1        Mn      15.000       0.0000  0.0000  0.0000     0.00000 (mod 1)
  ----------------------------------------------------------------------------
                                               IONIC PHASE:   0.00000 (mod 1)
  ============================================================================


                            ELECTRONIC POLARIZATION
                            ~~~~~~~~~~~~~~~~~~~~~~~

  ============================================================================
    String     Weight      First k-point in string         Phase
  ----------------------------------------------------------------------------
       1      0.003906      0.0000  0.0000  0.0000     0.00875
       2      0.023437     -0.0625  0.0625  0.0000     1.00000
       3      0.023437     -0.1250  0.1250  0.0000    -0.00003
       4      0.023437     -0.1875  0.1875  0.0000     0.00000
       5      0.023437     -0.2500  0.2500  0.0000     0.00000
       6      0.023437     -0.3125  0.3125  0.0000     0.00000
       7      0.023437     -0.3750  0.3750  0.0000     1.00000
       8      0.023437     -0.4375  0.4375  0.0000    -0.00000
       9      0.011719      0.5000 -0.5000  0.0000     0.00000
      10      0.023437     -0.0625  0.1250  0.0625     0.00000
      11      0.046875     -0.1250  0.1875  0.0625     0.00000
      12      0.046875     -0.1875  0.2500  0.0625    -0.00000
      13      0.046875     -0.2500  0.3125  0.0625    -0.00000
      14      0.046875     -0.3125  0.3750  0.0625    -0.00000
      15      0.046875     -0.3750  0.4375  0.0625     0.00001
      16      0.046875      0.5625 -0.5000  0.0625    -0.00000
      17      0.023437     -0.1250  0.2500  0.1250     0.00000
      18      0.046875     -0.1875  0.3125  0.1250    -0.00000
      19      0.046875     -0.2500  0.3750  0.1250    -0.00000
      20      0.046875     -0.3125  0.4375  0.1250    -0.00000
      21      0.046875      0.6250 -0.5000  0.1250    -0.00000
      22      0.023437      0.5625 -0.4375  0.1250     0.00000
      23      0.023437     -0.1875  0.3750  0.1875     0.00000
      24      0.046875     -0.2500  0.4375  0.1875     0.00000
      25      0.046875      0.6875 -0.5000  0.1875    -0.00000
      26      0.046875      0.6250 -0.4375  0.1875    -0.00000
      27      0.023437      0.7500 -0.5000  0.2500     0.00000
      28      0.046875      0.6875 -0.4375  0.2500    -0.00000
      29      0.023437      0.6250 -0.3750  0.2500    -0.00000
      30      0.023437      0.6875 -0.3750  0.3125    -0.00000
  ----------------------------------------------------------------------------
                                          ELECTRONIC PHASE:   0.04691
  ============================================================================


                               SUMMARY OF PHASES
                               ~~~~~~~~~~~~~~~~~

                          Ionic Phase:  0.00000
                     Electronic Phase:  0.04691
                          TOTAL PHASE:  0.04691 MOD_TOT: 1


                             VALUES OF POLARIZATION
                             ~~~~~~~~~~~~~~~~~~~~~~

        The calculation of phases done along the direction of vector 3
        of the reciprocal lattice gives the following contribution to
        the polarization vector (in different units, and being Omega
        the volume of the unit cell):

           P =   0.6842041  (mod  14.5857593)  (e/Omega).bohr

           P =   0.0002864  (mod   0.0061061)  e/bohr^2

           P =   0.0163758  (mod   0.3490962)  C/m^2

        The polarization direction is:  (-0.57735 ,-0.57735 , 0.57735 )


               ==================================================



     Writing output data file /home/edmondium/Documents/qe-6.7/tempdir/pwscf.save/

     init_run     :      2.64s CPU      2.83s WALL (       1 calls)
     electrons    :   3567.91s CPU   3642.67s WALL (       1 calls)

     Called by init_run:
     wfcinit      :      0.00s CPU      0.00s WALL (       1 calls)
     potinit      :      0.32s CPU      0.37s WALL (       1 calls)
     hinit0       :      1.73s CPU      1.75s WALL (       1 calls)

     Called by electrons:
     c_bands      :   3562.34s CPU   3636.61s WALL (       1 calls)
     v_of_rho     :      0.31s CPU      0.35s WALL (       1 calls)
     newd         :      0.22s CPU      0.33s WALL (       1 calls)

     Called by c_bands:
     init_us_2    :      1.25s CPU      1.53s WALL (     570 calls)
     ccgdiagg     :   3271.77s CPU   3340.36s WALL (    1149 calls)
     wfcrot       :    287.47s CPU    292.51s WALL (    1149 calls)

     Called by sum_band:

     Called by *cgdiagg:
     h_psi        :   2834.24s CPU   2894.11s WALL (  339940 calls)
     s_psi        :    166.76s CPU    170.62s WALL (  678731 calls)
     cdiaghg      :      0.91s CPU      0.92s WALL (    1149 calls)

     Called by h_psi:
     h_psi:calbec :    176.87s CPU    180.77s WALL (  339940 calls)
     vloc_psi     :   2561.38s CPU   2615.34s WALL (  339940 calls)
     add_vuspsi   :     84.32s CPU     86.38s WALL (  339940 calls)
     hs_1psi      :   2689.08s CPU   2745.07s WALL (  338791 calls)
     s_1psi       :    182.63s CPU    185.89s WALL (  338791 calls)

     General routines
     calbec       :    272.18s CPU    279.67s WALL (  679091 calls)
     fft          :      0.13s CPU      0.15s WALL (      11 calls)
     fftw         :   2138.68s CPU   2183.32s WALL (  741926 calls)
     davcio       :      0.80s CPU      1.15s WALL (     780 calls)

     Parallel routines
     fft_scatt_xy :    328.02s CPU    334.79s WALL (  741937 calls)
     fft_scatt_yz :    363.64s CPU    372.37s WALL (  741937 calls)

     PWSCF        :  59m32.71s CPU      1h 0m WALL


   This run was terminated on:  17: 2: 5   4Jan2021            

=------------------------------------------------------------------------------=
   JOB DONE.
=------------------------------------------------------------------------------=
