
     Program PWSCF v.6.5 starts on  4Jan2021 at 14:37:24 

     This program is part of the open-source Quantum ESPRESSO suite
     for quantum simulation of materials; please cite
         "P. Giannozzi et al., J. Phys.:Condens. Matter 21 395502 (2009);
         "P. Giannozzi et al., J. Phys.:Condens. Matter 29 465901 (2017);
          URL http://www.quantum-espresso.org", 
     in publications or presentations arising from this work. More details at
     http://www.quantum-espresso.org/quote

     Parallel version (MPI), running on     2 processors

     MPI processes distributed on     1 nodes
     R & G space division:  proc/nbgrp/npool/nimage =       2
     Waiting for input...
     Reading input from standard input

     Current dimensions of program PWSCF are:
     Max number of different atomic species (ntypx) = 10
     Max number of k-points (npk) =  40000
     Max angular momentum in pseudopotentials (lmaxx) =  3

     Subspace diagonalization in iterative solution of the eigenvalue problem:
     a serial algorithm will be used


     Parallelization info
     --------------------
     sticks:   dense  smooth     PW     G-vecs:    dense   smooth      PW
     Min         958     958    270                26510    26510    4002
     Max         959     959    271                26511    26511    4005
     Sum        1917    1917    541                53021    53021    8007



     bravais-lattice index     =            3
     lattice parameter (alat)  =      16.8422  a.u.
     unit-cell volume          =    2388.7199 (a.u.)^3
     number of atoms/cell      =            1
     number of atomic types    =            1
     number of electrons       =        15.00
     number of Kohn-Sham states=           25
     kinetic-energy cutoff     =      30.0000  Ry
     charge density cutoff     =     120.0000  Ry
     convergence threshold     =      1.0E-12
     mixing beta               =       0.3000
     number of iterations used =            8  plain     mixing
     Exchange-correlation= SLA PW PBE PBE
                           (   1   4   3   4   0   0   0)

     celldm(1)=  16.842184  celldm(2)=   0.000000  celldm(3)=   0.000000
     celldm(4)=   0.000000  celldm(5)=   0.000000  celldm(6)=   0.000000

     crystal axes: (cart. coord. in units of alat)
               a(1) = (   0.500000   0.500000   0.500000 )  
               a(2) = (  -0.500000   0.500000   0.500000 )  
               a(3) = (  -0.500000  -0.500000   0.500000 )  

     reciprocal axes: (cart. coord. in units 2 pi/alat)
               b(1) = (  1.000000  0.000000  1.000000 )  
               b(2) = ( -1.000000  1.000000  0.000000 )  
               b(3) = (  0.000000 -1.000000  1.000000 )  


     PseudoPot. # 1 for Mn read from file:
     /home/edmondium/Documents/qe-6.7/pseudo/Mn.pbe-sp-van.UPF
     MD5 check sum: bb92fce5fbcd1f885716158fe0993e5c
     Pseudo is Ultrasoft, Zval = 15.0
     Generated by new atomic code, or converted to UPF format
     Using radial grid of  879 points,  6 beta functions with: 
                l(1) =   0
                l(2) =   0
                l(3) =   1
                l(4) =   1
                l(5) =   2
                l(6) =   2
     Q(r) pseudized with  8 coefficients,  rinner =    1.000   1.000   1.000
                                                       1.000   1.000

     atomic species   valence    mass     pseudopotential
        Mn            15.00    54.93804     Mn( 1.00)

     48 Sym. Ops., with inversion, found



   Cartesian axes

     site n.     atom                  positions (alat units)
         1           Mn  tau(   1) = (   0.0000000   0.0000000   0.0000000  )

     number of k points=   145  Marzari-Vanderbilt smearing, width (Ry)=  0.0200

     Number of k-points >= 100: set verbosity='high' to print them.

     Dense  grid:    53021 G-vectors     FFT dimensions: (  54,  54,  54)

     Estimated max dynamical RAM per process >     279.91 MB

     Estimated total dynamical RAM >     559.82 MB

     Initial potential from superposition of free atoms

     starting charge   14.99950, renormalised to   15.00000

     negative rho (up, down):  2.629E-03 0.000E+00
     Starting wfcs are random

     total cpu time spent up to now is       31.4 secs

     Self-consistent Calculation

     iteration #  1     ecut=    30.00 Ry     beta= 0.30
     CG style diagonalization
     ethr =  1.00E-02,  avg # of iterations = 10.0

     negative rho (up, down):  2.180E-03 0.000E+00

     total cpu time spent up to now is      366.9 secs

     total energy              =    -208.26675437 Ry
     Harris-Foulkes estimate   =    -208.64392890 Ry
     estimated scf accuracy    <       0.82530613 Ry

     iteration #  2     ecut=    30.00 Ry     beta= 0.30
     CG style diagonalization
     ethr =  5.50E-03,  avg # of iterations =  3.2

     negative rho (up, down):  9.150E-04 0.000E+00

     total cpu time spent up to now is      479.2 secs

     total energy              =    -208.51313426 Ry
     Harris-Foulkes estimate   =    -208.75490330 Ry
     estimated scf accuracy    <       0.98765838 Ry

     iteration #  3     ecut=    30.00 Ry     beta= 0.30
     CG style diagonalization
     ethr =  5.50E-03,  avg # of iterations =  3.1

     negative rho (up, down):  1.231E-03 0.000E+00

     total cpu time spent up to now is      590.4 secs

     total energy              =    -208.55980647 Ry
     Harris-Foulkes estimate   =    -208.59218088 Ry
     estimated scf accuracy    <       0.15640376 Ry

     iteration #  4     ecut=    30.00 Ry     beta= 0.30
     CG style diagonalization
     ethr =  1.04E-03,  avg # of iterations =  3.0

     negative rho (up, down):  1.231E-03 0.000E+00

     total cpu time spent up to now is      697.9 secs

     total energy              =    -208.61858433 Ry
     Harris-Foulkes estimate   =    -208.62224730 Ry
     estimated scf accuracy    <       0.71772831 Ry

     iteration #  5     ecut=    30.00 Ry     beta= 0.30
     CG style diagonalization
     ethr =  1.04E-03,  avg # of iterations =  3.0

     negative rho (up, down):  8.691E-04 0.000E+00

     total cpu time spent up to now is      804.2 secs

     total energy              =    -208.44911844 Ry
     Harris-Foulkes estimate   =    -208.61936883 Ry
     estimated scf accuracy    <       0.68215193 Ry

     iteration #  6     ecut=    30.00 Ry     beta= 0.30
     CG style diagonalization
     ethr =  1.04E-03,  avg # of iterations =  3.2

     negative rho (up, down):  1.026E-03 0.000E+00

     total cpu time spent up to now is      916.6 secs

     total energy              =    -208.62857376 Ry
     Harris-Foulkes estimate   =    -208.67269400 Ry
     estimated scf accuracy    <       0.47138987 Ry

     iteration #  7     ecut=    30.00 Ry     beta= 0.30
     CG style diagonalization
     ethr =  1.04E-03,  avg # of iterations =  3.0

     negative rho (up, down):  1.405E-03 0.000E+00

     total cpu time spent up to now is     1030.7 secs

     total energy              =    -208.59067994 Ry
     Harris-Foulkes estimate   =    -208.63259886 Ry
     estimated scf accuracy    <       0.31239975 Ry

     iteration #  8     ecut=    30.00 Ry     beta= 0.30
     CG style diagonalization
     ethr =  1.04E-03,  avg # of iterations =  3.0

     negative rho (up, down):  1.413E-03 0.000E+00

     total cpu time spent up to now is     1138.9 secs

     total energy              =    -208.59558547 Ry
     Harris-Foulkes estimate   =    -208.59312587 Ry
     estimated scf accuracy    <       0.10427444 Ry

     iteration #  9     ecut=    30.00 Ry     beta= 0.30
     CG style diagonalization
     ethr =  6.95E-04,  avg # of iterations =  3.0

     negative rho (up, down):  1.378E-03 0.000E+00

     total cpu time spent up to now is     1246.3 secs

     total energy              =    -208.59871012 Ry
     Harris-Foulkes estimate   =    -208.59639749 Ry
     estimated scf accuracy    <       0.16679127 Ry

     iteration # 10     ecut=    30.00 Ry     beta= 0.30
     CG style diagonalization
     ethr =  6.95E-04,  avg # of iterations =  3.0

     negative rho (up, down):  1.245E-03 0.000E+00

     total cpu time spent up to now is     1354.3 secs

     total energy              =    -208.60633157 Ry
     Harris-Foulkes estimate   =    -208.59893933 Ry
     estimated scf accuracy    <       0.21247155 Ry

     iteration # 11     ecut=    30.00 Ry     beta= 0.30
     CG style diagonalization
     ethr =  6.95E-04,  avg # of iterations =  3.0

     negative rho (up, down):  1.262E-03 0.000E+00

     total cpu time spent up to now is     1461.8 secs

     total energy              =    -208.60232592 Ry
     Harris-Foulkes estimate   =    -208.60709374 Ry
     estimated scf accuracy    <       0.27896120 Ry

     iteration # 12     ecut=    30.00 Ry     beta= 0.30
     CG style diagonalization
     ethr =  6.95E-04,  avg # of iterations =  3.0

     negative rho (up, down):  1.271E-03 0.000E+00

     total cpu time spent up to now is     1570.7 secs

     total energy              =    -208.59103095 Ry
     Harris-Foulkes estimate   =    -208.60237659 Ry
     estimated scf accuracy    <       0.26287876 Ry

     iteration # 13     ecut=    30.00 Ry     beta= 0.30
     CG style diagonalization
     ethr =  6.95E-04,  avg # of iterations =  3.0

     negative rho (up, down):  6.055E-04 0.000E+00

     total cpu time spent up to now is     1679.6 secs

     total energy              =    -208.62875815 Ry
     Harris-Foulkes estimate   =    -208.59253205 Ry
     estimated scf accuracy    <       0.10743924 Ry

     iteration # 14     ecut=    30.00 Ry     beta= 0.30
     CG style diagonalization
     ethr =  6.95E-04,  avg # of iterations =  3.0

     negative rho (up, down):  2.270E-03 0.000E+00

     total cpu time spent up to now is     1789.7 secs

     total energy              =    -208.54473542 Ry
     Harris-Foulkes estimate   =    -208.64412542 Ry
     estimated scf accuracy    <       0.32418668 Ry

     iteration # 15     ecut=    30.00 Ry     beta= 0.30
     CG style diagonalization
     ethr =  6.95E-04,  avg # of iterations =  3.2

     negative rho (up, down):  1.980E-03 0.000E+00

     total cpu time spent up to now is     1907.6 secs

     total energy              =    -208.62153256 Ry
     Harris-Foulkes estimate   =    -208.62961131 Ry
     estimated scf accuracy    <       0.78892255 Ry

     iteration # 16     ecut=    30.00 Ry     beta= 0.30
     CG style diagonalization
     ethr =  6.95E-04,  avg # of iterations =  3.0

     negative rho (up, down):  1.871E-03 0.000E+00

     total cpu time spent up to now is     2018.9 secs

     total energy              =    -208.61709798 Ry
     Harris-Foulkes estimate   =    -208.62200705 Ry
     estimated scf accuracy    <       0.72817779 Ry

     iteration # 17     ecut=    30.00 Ry     beta= 0.30
     CG style diagonalization
     ethr =  6.95E-04,  avg # of iterations =  3.0

     negative rho (up, down):  2.534E-03 0.000E+00

     total cpu time spent up to now is     2129.7 secs

     total energy              =    -208.66563283 Ry
     Harris-Foulkes estimate   =    -208.61719199 Ry
     estimated scf accuracy    <       0.68497760 Ry

     iteration # 18     ecut=    30.00 Ry     beta= 0.30
     CG style diagonalization
     ethr =  6.95E-04,  avg # of iterations =  3.0

     negative rho (up, down):  1.375E-03 0.000E+00

     total cpu time spent up to now is     2260.2 secs

     total energy              =    -208.56000646 Ry
     Harris-Foulkes estimate   =    -208.66894047 Ry
     estimated scf accuracy    <       0.91796603 Ry

     iteration # 19     ecut=    30.00 Ry     beta= 0.30
     CG style diagonalization
     ethr =  6.95E-04,  avg # of iterations =  3.0

     negative rho (up, down):  1.053E-03 0.000E+00

     total cpu time spent up to now is     2373.9 secs

     total energy              =    -208.59197063 Ry
     Harris-Foulkes estimate   =    -208.58873384 Ry
     estimated scf accuracy    <       0.00557388 Ry

     iteration # 20     ecut=    30.00 Ry     beta= 0.30
     CG style diagonalization
     c_bands:  1 eigenvalues not converged
     ethr =  3.72E-05,  avg # of iterations =  3.5

     negative rho (up, down):  1.060E-03 0.000E+00

     total cpu time spent up to now is     2504.5 secs

     total energy              =    -208.60072119 Ry
     Harris-Foulkes estimate   =    -208.60262445 Ry
     estimated scf accuracy    <       0.25946474 Ry

     iteration # 21     ecut=    30.00 Ry     beta= 0.30
     CG style diagonalization
     ethr =  3.72E-05,  avg # of iterations =  3.0

     negative rho (up, down):  1.095E-03 0.000E+00

     total cpu time spent up to now is     2615.8 secs

     total energy              =    -208.59896585 Ry
     Harris-Foulkes estimate   =    -208.60077868 Ry
     estimated scf accuracy    <       0.24921473 Ry

     iteration # 22     ecut=    30.00 Ry     beta= 0.30
     CG style diagonalization
     ethr =  3.72E-05,  avg # of iterations =  3.0

     negative rho (up, down):  1.134E-03 0.000E+00

     total cpu time spent up to now is     2729.1 secs

     total energy              =    -208.59662389 Ry
     Harris-Foulkes estimate   =    -208.59899612 Ry
     estimated scf accuracy    <       0.23415744 Ry

     iteration # 23     ecut=    30.00 Ry     beta= 0.30
     CG style diagonalization
     ethr =  3.72E-05,  avg # of iterations =  3.0

     negative rho (up, down):  1.279E-03 0.000E+00

     total cpu time spent up to now is     2840.5 secs

     total energy              =    -208.58789213 Ry
     Harris-Foulkes estimate   =    -208.59669554 Ry
     estimated scf accuracy    <       0.20390779 Ry

     iteration # 24     ecut=    30.00 Ry     beta= 0.30
     CG style diagonalization
     ethr =  3.72E-05,  avg # of iterations =  3.0

     negative rho (up, down):  1.383E-03 0.000E+00

     total cpu time spent up to now is     2949.3 secs

     total energy              =    -208.58726010 Ry
     Harris-Foulkes estimate   =    -208.59005077 Ry
     estimated scf accuracy    <       0.03599374 Ry

     iteration # 25     ecut=    30.00 Ry     beta= 0.30
     CG style diagonalization
     ethr =  3.72E-05,  avg # of iterations =  3.0

     negative rho (up, down):  1.399E-03 0.000E+00

     total cpu time spent up to now is     3058.8 secs

     total energy              =    -208.58910427 Ry
     Harris-Foulkes estimate   =    -208.58938306 Ry
     estimated scf accuracy    <       0.01103325 Ry

     iteration # 26     ecut=    30.00 Ry     beta= 0.30
     CG style diagonalization
     ethr =  3.72E-05,  avg # of iterations =  3.0

     negative rho (up, down):  1.377E-03 0.000E+00

     total cpu time spent up to now is     3168.6 secs

     total energy              =    -208.58902136 Ry
     Harris-Foulkes estimate   =    -208.58919255 Ry
     estimated scf accuracy    <       0.00245495 Ry

     iteration # 27     ecut=    30.00 Ry     beta= 0.30
     CG style diagonalization
     ethr =  1.64E-05,  avg # of iterations =  3.0

     negative rho (up, down):  1.409E-03 0.000E+00

     total cpu time spent up to now is     3284.2 secs

     total energy              =    -208.58912536 Ry
     Harris-Foulkes estimate   =    -208.58913984 Ry
     estimated scf accuracy    <       0.00039767 Ry

     iteration # 28     ecut=    30.00 Ry     beta= 0.30
     CG style diagonalization
     c_bands:  1 eigenvalues not converged
     c_bands:  1 eigenvalues not converged
     c_bands:  1 eigenvalues not converged
     c_bands:  1 eigenvalues not converged
     c_bands:  1 eigenvalues not converged
     c_bands:  1 eigenvalues not converged
     c_bands:  1 eigenvalues not converged
     c_bands:  1 eigenvalues not converged
     ethr =  2.65E-06,  avg # of iterations =  3.3

     negative rho (up, down):  1.390E-03 0.000E+00

     total cpu time spent up to now is     3407.2 secs

     total energy              =    -208.58914013 Ry
     Harris-Foulkes estimate   =    -208.58913105 Ry
     estimated scf accuracy    <       0.00002579 Ry

     iteration # 29     ecut=    30.00 Ry     beta= 0.30
     CG style diagonalization
     c_bands:  1 eigenvalues not converged
     c_bands:  1 eigenvalues not converged
     c_bands:  1 eigenvalues not converged
     ethr =  1.72E-07,  avg # of iterations =  3.3

     negative rho (up, down):  1.397E-03 0.000E+00

     total cpu time spent up to now is     3527.0 secs

     total energy              =    -208.58902081 Ry
     Harris-Foulkes estimate   =    -208.58916961 Ry
     estimated scf accuracy    <       0.00157729 Ry

     iteration # 30     ecut=    30.00 Ry     beta= 0.30
     CG style diagonalization
     c_bands:  1 eigenvalues not converged
     ethr =  1.72E-07,  avg # of iterations =  3.3

     negative rho (up, down):  1.393E-03 0.000E+00

     total cpu time spent up to now is     3646.9 secs

     total energy              =    -208.58910066 Ry
     Harris-Foulkes estimate   =    -208.58916538 Ry
     estimated scf accuracy    <       0.00142857 Ry

     iteration # 31     ecut=    30.00 Ry     beta= 0.30
     CG style diagonalization
     ethr =  1.72E-07,  avg # of iterations =  3.2

     negative rho (up, down):  1.394E-03 0.000E+00

     total cpu time spent up to now is     3767.1 secs

     total energy              =    -208.58913033 Ry
     Harris-Foulkes estimate   =    -208.58913033 Ry
     estimated scf accuracy    <       0.00000763 Ry

     iteration # 32     ecut=    30.00 Ry     beta= 0.30
     CG style diagonalization
     ethr =  5.08E-08,  avg # of iterations =  3.0

     negative rho (up, down):  1.398E-03 0.000E+00

     total cpu time spent up to now is     3880.5 secs

     total energy              =    -208.58912996 Ry
     Harris-Foulkes estimate   =    -208.58913038 Ry
     estimated scf accuracy    <       0.00000991 Ry

     iteration # 33     ecut=    30.00 Ry     beta= 0.30
     CG style diagonalization
     ethr =  5.08E-08,  avg # of iterations =  3.0

     negative rho (up, down):  1.399E-03 0.000E+00

     total cpu time spent up to now is     3994.3 secs

     total energy              =    -208.58913015 Ry
     Harris-Foulkes estimate   =    -208.58913019 Ry
     estimated scf accuracy    <       0.00000015 Ry

     iteration # 34     ecut=    30.00 Ry     beta= 0.30
     CG style diagonalization
     ethr =  1.03E-09,  avg # of iterations =  3.0

     negative rho (up, down):  1.399E-03 0.000E+00

     total cpu time spent up to now is     4103.7 secs

     total energy              =    -208.58913012 Ry
     Harris-Foulkes estimate   =    -208.58913016 Ry
     estimated scf accuracy    <       0.00000009 Ry

     iteration # 35     ecut=    30.00 Ry     beta= 0.30
     CG style diagonalization
     ethr =  5.85E-10,  avg # of iterations =  3.4

     negative rho (up, down):  1.399E-03 0.000E+00

     total cpu time spent up to now is     4225.2 secs

     total energy              =    -208.58913011 Ry
     Harris-Foulkes estimate   =    -208.58913015 Ry
     estimated scf accuracy    <       0.00000030 Ry

     iteration # 36     ecut=    30.00 Ry     beta= 0.30
     CG style diagonalization
     ethr =  5.85E-10,  avg # of iterations =  3.2

     negative rho (up, down):  1.401E-03 0.000E+00

     total cpu time spent up to now is     4342.9 secs

     total energy              =    -208.58913013 Ry
     Harris-Foulkes estimate   =    -208.58913013 Ry
     estimated scf accuracy    <       0.00000004 Ry

     iteration # 37     ecut=    30.00 Ry     beta= 0.30
     CG style diagonalization
     ethr =  2.62E-10,  avg # of iterations =  3.0

     negative rho (up, down):  1.401E-03 0.000E+00

     total cpu time spent up to now is     4456.5 secs

     total energy              =    -208.58913013 Ry
     Harris-Foulkes estimate   =    -208.58913013 Ry
     estimated scf accuracy    <          2.8E-09 Ry

     iteration # 38     ecut=    30.00 Ry     beta= 0.30
     CG style diagonalization
     ethr =  1.89E-11,  avg # of iterations =  3.0

     negative rho (up, down):  1.401E-03 0.000E+00

     total cpu time spent up to now is     4565.4 secs

     total energy              =    -208.58913013 Ry
     Harris-Foulkes estimate   =    -208.58913013 Ry
     estimated scf accuracy    <          2.2E-09 Ry

     iteration # 39     ecut=    30.00 Ry     beta= 0.30
     CG style diagonalization
     ethr =  1.47E-11,  avg # of iterations =  3.0

     negative rho (up, down):  1.401E-03 0.000E+00

     total cpu time spent up to now is     4678.1 secs

     total energy              =    -208.58913013 Ry
     Harris-Foulkes estimate   =    -208.58913013 Ry
     estimated scf accuracy    <          1.4E-10 Ry

     iteration # 40     ecut=    30.00 Ry     beta= 0.30
     CG style diagonalization
     ethr =  9.29E-13,  avg # of iterations =  3.2

     negative rho (up, down):  1.400E-03 0.000E+00

     total cpu time spent up to now is     4795.6 secs

     total energy              =    -208.58913013 Ry
     Harris-Foulkes estimate   =    -208.58913013 Ry
     estimated scf accuracy    <          1.8E-10 Ry

     iteration # 41     ecut=    30.00 Ry     beta= 0.30
     CG style diagonalization
     ethr =  9.29E-13,  avg # of iterations =  3.0

     negative rho (up, down):  1.400E-03 0.000E+00

     total cpu time spent up to now is     4907.5 secs

     total energy              =    -208.58913013 Ry
     Harris-Foulkes estimate   =    -208.58913013 Ry
     estimated scf accuracy    <          6.3E-12 Ry

     iteration # 42     ecut=    30.00 Ry     beta= 0.30
     CG style diagonalization
     c_bands:  1 eigenvalues not converged
     ethr =  1.00E-13,  avg # of iterations =  3.3

     negative rho (up, down):  1.400E-03 0.000E+00

     total cpu time spent up to now is     5026.9 secs

     End of self-consistent calculation

     Number of k-points >= 100: set verbosity='high' to print the bands.

     the Fermi energy is    -3.4955 ev

!    total energy              =    -208.58913013 Ry
     Harris-Foulkes estimate   =    -208.58913013 Ry
     estimated scf accuracy    <          8.5E-13 Ry

     The total energy is the sum of the following terms:

     one-electron contribution =    -267.73441513 Ry
     hartree contribution      =     130.37008533 Ry
     xc contribution           =     -22.57219686 Ry
     ewald contribution        =     -48.61765687 Ry
     smearing contrib. (-TS)   =      -0.03494660 Ry

     convergence has been achieved in  42 iterations

     Writing output data file /home/edmondium/Documents/qe-6.7/tempdir/pwscf.save/

     init_run     :     29.56s CPU     30.65s WALL (       1 calls)
     electrons    :   4890.37s CPU   4995.53s WALL (       1 calls)

     Called by init_run:
     wfcinit      :     28.77s CPU     29.65s WALL (       1 calls)
     potinit      :      0.14s CPU      0.16s WALL (       1 calls)
     hinit0       :      0.44s CPU      0.51s WALL (       1 calls)

     Called by electrons:
     c_bands      :   4290.70s CPU   4379.71s WALL (      42 calls)
     sum_band     :    586.02s CPU    598.93s WALL (      42 calls)
     v_of_rho     :      6.13s CPU      6.81s WALL (      43 calls)
     newd         :      6.15s CPU      8.63s WALL (      43 calls)
     mix_rho      :      1.41s CPU      1.52s WALL (      42 calls)

     Called by c_bands:
     init_us_2    :     27.80s CPU     28.21s WALL (   12325 calls)
     ccgdiagg     :   3051.50s CPU   3116.84s WALL (    6090 calls)
     wfcrot       :   1240.91s CPU   1264.90s WALL (    6090 calls)

     Called by sum_band:
     sum_band:bec :      0.22s CPU      0.22s WALL (    6090 calls)
     addusdens    :      6.74s CPU      8.75s WALL (      42 calls)

     Called by *cgdiagg:
     h_psi        :   3532.89s CPU   3609.51s WALL (  352929 calls)
     s_psi        :    189.98s CPU    194.01s WALL (  699768 calls)
     cdiaghg      :      3.55s CPU      3.61s WALL (    6090 calls)

     Called by h_psi:
     h_psi:calbec :    206.93s CPU    211.50s WALL (  352929 calls)
     vloc_psi     :   3201.28s CPU   3270.93s WALL (  352929 calls)
     add_vuspsi   :    109.11s CPU    111.48s WALL (  352929 calls)
     hs_1psi      :   2575.72s CPU   2630.43s WALL (  346839 calls)
     s_1psi       :    186.16s CPU    189.73s WALL (  346839 calls)

     General routines
     calbec       :    336.47s CPU    345.15s WALL (  705858 calls)
     fft          :      3.38s CPU      3.59s WALL (     472 calls)
     ffts         :      0.25s CPU      0.26s WALL (      42 calls)
     fftw         :   3024.10s CPU   3088.55s WALL ( 1150428 calls)

     Parallel routines
     fft_scatt_xy :    491.37s CPU    502.47s WALL ( 1150942 calls)
     fft_scatt_yz :    465.05s CPU    476.25s WALL ( 1150942 calls)

     PWSCF        :      1h22m CPU      1h23m WALL


   This run was terminated on:  16: 1:12   4Jan2021            

=------------------------------------------------------------------------------=
   JOB DONE.
=------------------------------------------------------------------------------=
