
     Program PWSCF v.6.5 starts on 31Jan2021 at 12:37:21 

     This program is part of the open-source Quantum ESPRESSO suite
     for quantum simulation of materials; please cite
         "P. Giannozzi et al., J. Phys.:Condens. Matter 21 395502 (2009);
         "P. Giannozzi et al., J. Phys.:Condens. Matter 29 465901 (2017);
          URL http://www.quantum-espresso.org", 
     in publications or presentations arising from this work. More details at
     http://www.quantum-espresso.org/quote

     Parallel version (MPI), running on     4 processors

     MPI processes distributed on     1 nodes
     R & G space division:  proc/nbgrp/npool/nimage =       4
     Waiting for input...
     Reading input from standard input

     Current dimensions of program PWSCF are:
     Max number of different atomic species (ntypx) = 10
     Max number of k-points (npk) =  40000
     Max angular momentum in pseudopotentials (lmaxx) =  3

     Subspace diagonalization in iterative solution of the eigenvalue problem:
     a serial algorithm will be used


     Parallelization info
     --------------------
     sticks:   dense  smooth     PW     G-vecs:    dense   smooth      PW
     Min         479     479    135                13255    13255    2001
     Max         480     480    136                13256    13256    2004
     Sum        1917    1917    541                53021    53021    8007



     bravais-lattice index     =            3
     lattice parameter (alat)  =      16.8422  a.u.
     unit-cell volume          =    2388.7199 (a.u.)^3
     number of atoms/cell      =            1
     number of atomic types    =            1
     number of electrons       =        15.00
     number of Kohn-Sham states=           25
     kinetic-energy cutoff     =      30.0000  Ry
     charge density cutoff     =     120.0000  Ry
     convergence threshold     =      1.0E-12
     mixing beta               =       0.3000
     number of iterations used =            8  plain     mixing
     Exchange-correlation= SLA PW PBE PBE
                           (   1   4   3   4   0   0   0)

     celldm(1)=  16.842184  celldm(2)=   0.000000  celldm(3)=   0.000000
     celldm(4)=   0.000000  celldm(5)=   0.000000  celldm(6)=   0.000000

     crystal axes: (cart. coord. in units of alat)
               a(1) = (   0.500000   0.500000   0.500000 )  
               a(2) = (  -0.500000   0.500000   0.500000 )  
               a(3) = (  -0.500000  -0.500000   0.500000 )  

     reciprocal axes: (cart. coord. in units 2 pi/alat)
               b(1) = (  1.000000  0.000000  1.000000 )  
               b(2) = ( -1.000000  1.000000  0.000000 )  
               b(3) = (  0.000000 -1.000000  1.000000 )  


     PseudoPot. # 1 for Mn read from file:
     /home/edmondium/quantum/pseudo/Mn.pbe-sp-van.UPF
     MD5 check sum: bb92fce5fbcd1f885716158fe0993e5c
     Pseudo is Ultrasoft, Zval = 15.0
     Generated by new atomic code, or converted to UPF format
     Using radial grid of  879 points,  6 beta functions with: 
                l(1) =   0
                l(2) =   0
                l(3) =   1
                l(4) =   1
                l(5) =   2
                l(6) =   2
     Q(r) pseudized with  8 coefficients,  rinner =    1.000   1.000   1.000
                                                       1.000   1.000

     atomic species   valence    mass     pseudopotential
        Mn            15.00    54.93804     Mn( 1.00)

     48 Sym. Ops., with inversion, found



   Cartesian axes

     site n.     atom                  positions (alat units)
         1           Mn  tau(   1) = (   0.0000000   0.0000000   0.0000000  )

     number of k points=   145  Marzari-Vanderbilt smearing, width (Ry)=  0.0200

     Number of k-points >= 100: set verbosity='high' to print them.

     Dense  grid:    53021 G-vectors     FFT dimensions: (  54,  54,  54)

     Estimated max dynamical RAM per process >     141.23 MB

     Estimated total dynamical RAM >     564.93 MB

     Initial potential from superposition of free atoms

     starting charge   14.99950, renormalised to   15.00000

     negative rho (up, down):  2.629E-03 0.000E+00
     Starting wfcs are random

     total cpu time spent up to now is        7.9 secs

     Self-consistent Calculation

     iteration #  1     ecut=    30.00 Ry     beta= 0.30
     CG style diagonalization
     ethr =  1.00E-02,  avg # of iterations = 10.0

     negative rho (up, down):  2.285E-03 0.000E+00

     total cpu time spent up to now is      110.8 secs

     total energy              =    -208.24756742 Ry
     Harris-Foulkes estimate   =    -208.65219969 Ry
     estimated scf accuracy    <       0.88440394 Ry

     iteration #  2     ecut=    30.00 Ry     beta= 0.30
     CG style diagonalization
     ethr =  5.90E-03,  avg # of iterations =  3.2

     negative rho (up, down):  7.780E-04 0.000E+00

     total cpu time spent up to now is      141.4 secs

     total energy              =    -208.49735472 Ry
     Harris-Foulkes estimate   =    -208.77146395 Ry
     estimated scf accuracy    <       1.14024089 Ry

     iteration #  3     ecut=    30.00 Ry     beta= 0.30
     CG style diagonalization
     ethr =  5.90E-03,  avg # of iterations =  3.1

     negative rho (up, down):  1.165E-03 0.000E+00

     total cpu time spent up to now is      172.0 secs

     total energy              =    -208.55763377 Ry
     Harris-Foulkes estimate   =    -208.59359960 Ry
     estimated scf accuracy    <       0.18700181 Ry

     iteration #  4     ecut=    30.00 Ry     beta= 0.30
     CG style diagonalization
     ethr =  1.25E-03,  avg # of iterations =  3.0

     negative rho (up, down):  1.165E-03 0.000E+00

     total cpu time spent up to now is      201.2 secs

     total energy              =    -208.61970684 Ry
     Harris-Foulkes estimate   =    -208.62015024 Ry
     estimated scf accuracy    <       0.69822588 Ry

     iteration #  5     ecut=    30.00 Ry     beta= 0.30
     CG style diagonalization
     ethr =  1.25E-03,  avg # of iterations =  3.0

     negative rho (up, down):  7.430E-04 0.000E+00

     total cpu time spent up to now is      230.3 secs

     total energy              =    -208.43655474 Ry
     Harris-Foulkes estimate   =    -208.62051182 Ry
     estimated scf accuracy    <       0.68725869 Ry

     iteration #  6     ecut=    30.00 Ry     beta= 0.30
     CG style diagonalization
     ethr =  1.25E-03,  avg # of iterations =  3.2

     negative rho (up, down):  9.705E-04 0.000E+00

     total cpu time spent up to now is      261.3 secs

     total energy              =    -208.63410923 Ry
     Harris-Foulkes estimate   =    -208.68443344 Ry
     estimated scf accuracy    <       0.52711194 Ry

     iteration #  7     ecut=    30.00 Ry     beta= 0.30
     CG style diagonalization
     ethr =  1.25E-03,  avg # of iterations =  3.0

     negative rho (up, down):  1.298E-03 0.000E+00

     total cpu time spent up to now is      290.4 secs

     total energy              =    -208.60934565 Ry
     Harris-Foulkes estimate   =    -208.63911467 Ry
     estimated scf accuracy    <       0.33810518 Ry

     iteration #  8     ecut=    30.00 Ry     beta= 0.30
     CG style diagonalization
     ethr =  1.25E-03,  avg # of iterations =  3.0

     negative rho (up, down):  1.284E-03 0.000E+00

     total cpu time spent up to now is      320.7 secs

     total energy              =    -208.61133114 Ry
     Harris-Foulkes estimate   =    -208.61142085 Ry
     estimated scf accuracy    <       0.27546465 Ry

     iteration #  9     ecut=    30.00 Ry     beta= 0.30
     CG style diagonalization
     ethr =  1.25E-03,  avg # of iterations =  3.0

     negative rho (up, down):  1.358E-03 0.000E+00

     total cpu time spent up to now is      351.1 secs

     total energy              =    -208.60722232 Ry
     Harris-Foulkes estimate   =    -208.61160394 Ry
     estimated scf accuracy    <       0.28128369 Ry

     iteration # 10     ecut=    30.00 Ry     beta= 0.30
     CG style diagonalization
     ethr =  1.25E-03,  avg # of iterations =  3.0

     negative rho (up, down):  1.351E-03 0.000E+00

     total cpu time spent up to now is      380.1 secs

     total energy              =    -208.60653091 Ry
     Harris-Foulkes estimate   =    -208.60728712 Ry
     estimated scf accuracy    <       0.27765802 Ry

     iteration # 11     ecut=    30.00 Ry     beta= 0.30
     CG style diagonalization
     ethr =  1.25E-03,  avg # of iterations =  3.0

     negative rho (up, down):  1.353E-03 0.000E+00

     total cpu time spent up to now is      409.0 secs

     total energy              =    -208.60061423 Ry
     Harris-Foulkes estimate   =    -208.60655815 Ry
     estimated scf accuracy    <       0.27915441 Ry

     iteration # 12     ecut=    30.00 Ry     beta= 0.30
     CG style diagonalization
     ethr =  1.25E-03,  avg # of iterations =  3.0

     negative rho (up, down):  1.257E-03 0.000E+00

     total cpu time spent up to now is      438.0 secs

     total energy              =    -208.57712867 Ry
     Harris-Foulkes estimate   =    -208.60070267 Ry
     estimated scf accuracy    <       0.25277939 Ry

     iteration # 13     ecut=    30.00 Ry     beta= 0.30
     CG style diagonalization
     ethr =  1.25E-03,  avg # of iterations =  3.0

     negative rho (up, down):  1.571E-03 0.000E+00

     total cpu time spent up to now is      467.4 secs

     total energy              =    -208.55386304 Ry
     Harris-Foulkes estimate   =    -208.59061830 Ry
     estimated scf accuracy    <       0.04902275 Ry

     iteration # 14     ecut=    30.00 Ry     beta= 0.30
     CG style diagonalization
     ethr =  3.27E-04,  avg # of iterations =  3.6

     negative rho (up, down):  1.491E-03 0.000E+00

     total cpu time spent up to now is      501.7 secs

     total energy              =    -208.66165273 Ry
     Harris-Foulkes estimate   =    -208.72466422 Ry
     estimated scf accuracy    <       0.70651740 Ry

     iteration # 15     ecut=    30.00 Ry     beta= 0.30
     CG style diagonalization
     ethr =  3.27E-04,  avg # of iterations =  3.2

     negative rho (up, down):  1.525E-03 0.000E+00

     total cpu time spent up to now is      532.9 secs

     total energy              =    -208.64591559 Ry
     Harris-Foulkes estimate   =    -208.66716632 Ry
     estimated scf accuracy    <       0.43443645 Ry

     iteration # 16     ecut=    30.00 Ry     beta= 0.30
     CG style diagonalization
     ethr =  3.27E-04,  avg # of iterations =  3.0

     negative rho (up, down):  1.503E-03 0.000E+00

     total cpu time spent up to now is      563.4 secs

     total energy              =    -208.64737195 Ry
     Harris-Foulkes estimate   =    -208.64677590 Ry
     estimated scf accuracy    <       0.35174458 Ry

     iteration # 17     ecut=    30.00 Ry     beta= 0.30
     CG style diagonalization
     ethr =  3.27E-04,  avg # of iterations =  3.0

     negative rho (up, down):  1.675E-03 0.000E+00

     total cpu time spent up to now is      593.2 secs

     total energy              =    -208.60212292 Ry
     Harris-Foulkes estimate   =    -208.64741225 Ry
     estimated scf accuracy    <       0.35596781 Ry

     iteration # 18     ecut=    30.00 Ry     beta= 0.30
     CG style diagonalization
     ethr =  3.27E-04,  avg # of iterations =  3.2

     negative rho (up, down):  1.840E-03 0.000E+00

     total cpu time spent up to now is      625.3 secs

     total energy              =    -208.58050950 Ry
     Harris-Foulkes estimate   =    -208.60498763 Ry
     estimated scf accuracy    <       0.27186122 Ry

     iteration # 19     ecut=    30.00 Ry     beta= 0.30
     CG style diagonalization
     ethr =  3.27E-04,  avg # of iterations =  3.0

     negative rho (up, down):  1.859E-03 0.000E+00

     total cpu time spent up to now is      654.4 secs

     total energy              =    -208.58945321 Ry
     Harris-Foulkes estimate   =    -208.58926397 Ry
     estimated scf accuracy    <       0.00210599 Ry

     iteration # 20     ecut=    30.00 Ry     beta= 0.30
     CG style diagonalization
     c_bands:  1 eigenvalues not converged
     c_bands:  1 eigenvalues not converged
     c_bands:  2 eigenvalues not converged
     c_bands:  1 eigenvalues not converged
     c_bands:  1 eigenvalues not converged
     c_bands:  1 eigenvalues not converged
     c_bands:  1 eigenvalues not converged
     ethr =  1.40E-05,  avg # of iterations =  3.5

     negative rho (up, down):  2.047E-03 0.000E+00

     total cpu time spent up to now is      688.5 secs

     total energy              =    -208.59114377 Ry
     Harris-Foulkes estimate   =    -208.58983688 Ry
     estimated scf accuracy    <       0.01903036 Ry

     iteration # 21     ecut=    30.00 Ry     beta= 0.30
     CG style diagonalization
     c_bands:  1 eigenvalues not converged
     c_bands:  1 eigenvalues not converged
     c_bands:  1 eigenvalues not converged
     ethr =  1.40E-05,  avg # of iterations =  3.4

     negative rho (up, down):  2.115E-03 0.000E+00

     total cpu time spent up to now is      721.6 secs

     total energy              =    -208.59488509 Ry
     Harris-Foulkes estimate   =    -208.59217285 Ry
     estimated scf accuracy    <       0.11352708 Ry

     iteration # 22     ecut=    30.00 Ry     beta= 0.30
     CG style diagonalization
     c_bands:  1 eigenvalues not converged
     ethr =  1.40E-05,  avg # of iterations =  3.0

     negative rho (up, down):  1.891E-03 0.000E+00

     total cpu time spent up to now is      751.0 secs

     total energy              =    -208.58626099 Ry
     Harris-Foulkes estimate   =    -208.59546718 Ry
     estimated scf accuracy    <       0.23166665 Ry

     iteration # 23     ecut=    30.00 Ry     beta= 0.30
     CG style diagonalization
     ethr =  1.40E-05,  avg # of iterations =  3.2

     negative rho (up, down):  1.588E-03 0.000E+00

     total cpu time spent up to now is      781.8 secs

     total energy              =    -208.58802255 Ry
     Harris-Foulkes estimate   =    -208.58965960 Ry
     estimated scf accuracy    <       0.01240845 Ry

     iteration # 24     ecut=    30.00 Ry     beta= 0.30
     CG style diagonalization
     ethr =  1.40E-05,  avg # of iterations =  3.1

     negative rho (up, down):  1.443E-03 0.000E+00

     total cpu time spent up to now is      811.1 secs

     total energy              =    -208.60511800 Ry
     Harris-Foulkes estimate   =    -208.59058840 Ry
     estimated scf accuracy    <       0.04354105 Ry

     iteration # 25     ecut=    30.00 Ry     beta= 0.30
     CG style diagonalization
     ethr =  1.40E-05,  avg # of iterations =  3.6

     negative rho (up, down):  1.526E-03 0.000E+00

     total cpu time spent up to now is      845.7 secs

     total energy              =    -208.58717591 Ry
     Harris-Foulkes estimate   =    -208.62044878 Ry
     estimated scf accuracy    <       0.26506318 Ry

     iteration # 26     ecut=    30.00 Ry     beta= 0.30
     CG style diagonalization
     ethr =  1.40E-05,  avg # of iterations =  3.6

     negative rho (up, down):  1.519E-03 0.000E+00

     total cpu time spent up to now is      880.4 secs

     total energy              =    -208.58720284 Ry
     Harris-Foulkes estimate   =    -208.59009977 Ry
     estimated scf accuracy    <       0.02706445 Ry

     iteration # 27     ecut=    30.00 Ry     beta= 0.30
     CG style diagonalization
     ethr =  1.40E-05,  avg # of iterations =  3.1

     negative rho (up, down):  1.298E-03 0.000E+00

     total cpu time spent up to now is      911.4 secs

     total energy              =    -208.58149888 Ry
     Harris-Foulkes estimate   =    -208.59037136 Ry
     estimated scf accuracy    <       0.04004270 Ry

     iteration # 28     ecut=    30.00 Ry     beta= 0.30
     CG style diagonalization
     ethr =  1.40E-05,  avg # of iterations =  3.5

     negative rho (up, down):  1.307E-03 0.000E+00

     total cpu time spent up to now is      945.4 secs

     total energy              =    -208.58287905 Ry
     Harris-Foulkes estimate   =    -208.60116694 Ry
     estimated scf accuracy    <       0.25462310 Ry

     iteration # 29     ecut=    30.00 Ry     beta= 0.30
     CG style diagonalization
     ethr =  1.40E-05,  avg # of iterations =  3.4

     negative rho (up, down):  1.799E-03 0.000E+00

     total cpu time spent up to now is      977.6 secs

     total energy              =    -208.58879926 Ry
     Harris-Foulkes estimate   =    -208.58938089 Ry
     estimated scf accuracy    <       0.00125665 Ry

     iteration # 30     ecut=    30.00 Ry     beta= 0.30
     CG style diagonalization
     ethr =  8.38E-06,  avg # of iterations =  3.6

     negative rho (up, down):  1.808E-03 0.000E+00

     total cpu time spent up to now is     1011.7 secs

     total energy              =    -208.60245571 Ry
     Harris-Foulkes estimate   =    -208.60491706 Ry
     estimated scf accuracy    <       0.48734130 Ry

     iteration # 31     ecut=    30.00 Ry     beta= 0.30
     CG style diagonalization
     ethr =  8.38E-06,  avg # of iterations =  3.0

     negative rho (up, down):  1.558E-03 0.000E+00

     total cpu time spent up to now is     1040.4 secs

     total energy              =    -208.59256206 Ry
     Harris-Foulkes estimate   =    -208.60252914 Ry
     estimated scf accuracy    <       0.43389573 Ry

     iteration # 32     ecut=    30.00 Ry     beta= 0.30
     CG style diagonalization
     ethr =  8.38E-06,  avg # of iterations =  3.2

     negative rho (up, down):  1.711E-03 0.000E+00

     total cpu time spent up to now is     1071.2 secs

     total energy              =    -208.59598575 Ry
     Harris-Foulkes estimate   =    -208.59418264 Ry
     estimated scf accuracy    <       0.18130332 Ry

     iteration # 33     ecut=    30.00 Ry     beta= 0.30
     CG style diagonalization
     ethr =  8.38E-06,  avg # of iterations =  3.0

     negative rho (up, down):  1.634E-03 0.000E+00

     total cpu time spent up to now is     1100.2 secs

     total energy              =    -208.59418312 Ry
     Harris-Foulkes estimate   =    -208.59616327 Ry
     estimated scf accuracy    <       0.25137696 Ry

     iteration # 34     ecut=    30.00 Ry     beta= 0.30
     CG style diagonalization
     ethr =  8.38E-06,  avg # of iterations =  3.0

     negative rho (up, down):  1.501E-03 0.000E+00

     total cpu time spent up to now is     1129.2 secs

     total energy              =    -208.58578947 Ry
     Harris-Foulkes estimate   =    -208.59432521 Ry
     estimated scf accuracy    <       0.18679522 Ry

     iteration # 35     ecut=    30.00 Ry     beta= 0.30
     CG style diagonalization
     ethr =  8.38E-06,  avg # of iterations =  3.2

     negative rho (up, down):  1.578E-03 0.000E+00

     total cpu time spent up to now is     1160.6 secs

     total energy              =    -208.58957842 Ry
     Harris-Foulkes estimate   =    -208.58937939 Ry
     estimated scf accuracy    <       0.00253328 Ry

     iteration # 36     ecut=    30.00 Ry     beta= 0.30
     CG style diagonalization
     ethr =  8.38E-06,  avg # of iterations =  3.0

     negative rho (up, down):  1.603E-03 0.000E+00

     total cpu time spent up to now is     1189.6 secs

     total energy              =    -208.58959260 Ry
     Harris-Foulkes estimate   =    -208.58972123 Ry
     estimated scf accuracy    <       0.01477694 Ry

     iteration # 37     ecut=    30.00 Ry     beta= 0.30
     CG style diagonalization
     ethr =  8.38E-06,  avg # of iterations =  3.0

     negative rho (up, down):  1.668E-03 0.000E+00

     total cpu time spent up to now is     1219.9 secs

     total energy              =    -208.58972490 Ry
     Harris-Foulkes estimate   =    -208.58960239 Ry
     estimated scf accuracy    <       0.01053270 Ry

     iteration # 38     ecut=    30.00 Ry     beta= 0.30
     CG style diagonalization
     ethr =  8.38E-06,  avg # of iterations =  3.0

     negative rho (up, down):  1.451E-03 0.000E+00

     total cpu time spent up to now is     1248.7 secs

     total energy              =    -208.59046282 Ry
     Harris-Foulkes estimate   =    -208.58975061 Ry
     estimated scf accuracy    <       0.01792306 Ry

     iteration # 39     ecut=    30.00 Ry     beta= 0.30
     CG style diagonalization
     ethr =  8.38E-06,  avg # of iterations =  3.2

     negative rho (up, down):  1.463E-03 0.000E+00

     total cpu time spent up to now is     1279.6 secs

     total energy              =    -208.58719826 Ry
     Harris-Foulkes estimate   =    -208.59102076 Ry
     estimated scf accuracy    <       0.07676292 Ry

     iteration # 40     ecut=    30.00 Ry     beta= 0.30
     CG style diagonalization
     ethr =  8.38E-06,  avg # of iterations =  3.2

     negative rho (up, down):  1.328E-03 0.000E+00

     total cpu time spent up to now is     1310.2 secs

     total energy              =    -208.58911551 Ry
     Harris-Foulkes estimate   =    -208.58912673 Ry
     estimated scf accuracy    <       0.00005602 Ry

     iteration # 41     ecut=    30.00 Ry     beta= 0.30
     CG style diagonalization
     c_bands:  1 eigenvalues not converged
     c_bands:  1 eigenvalues not converged
     c_bands:  1 eigenvalues not converged
     ethr =  3.73E-07,  avg # of iterations =  3.3

     negative rho (up, down):  1.440E-03 0.000E+00

     total cpu time spent up to now is     1341.6 secs

     total energy              =    -208.58866380 Ry
     Harris-Foulkes estimate   =    -208.58941403 Ry
     estimated scf accuracy    <       0.01089325 Ry

     iteration # 42     ecut=    30.00 Ry     beta= 0.30
     CG style diagonalization
     c_bands:  1 eigenvalues not converged
     ethr =  3.73E-07,  avg # of iterations =  3.3

     negative rho (up, down):  1.404E-03 0.000E+00

     total cpu time spent up to now is     1373.0 secs

     total energy              =    -208.58909076 Ry
     Harris-Foulkes estimate   =    -208.58917075 Ry
     estimated scf accuracy    <       0.00163716 Ry

     iteration # 43     ecut=    30.00 Ry     beta= 0.30
     CG style diagonalization
     ethr =  3.73E-07,  avg # of iterations =  3.1

     negative rho (up, down):  1.400E-03 0.000E+00

     total cpu time spent up to now is     1402.4 secs

     total energy              =    -208.58912981 Ry
     Harris-Foulkes estimate   =    -208.58912987 Ry
     estimated scf accuracy    <       0.00000065 Ry

     iteration # 44     ecut=    30.00 Ry     beta= 0.30
     CG style diagonalization
     ethr =  4.31E-09,  avg # of iterations =  3.3

     negative rho (up, down):  1.399E-03 0.000E+00

     total cpu time spent up to now is     1433.6 secs

     total energy              =    -208.58913008 Ry
     Harris-Foulkes estimate   =    -208.58913009 Ry
     estimated scf accuracy    <       0.00000005 Ry

     iteration # 45     ecut=    30.00 Ry     beta= 0.30
     CG style diagonalization
     ethr =  3.09E-10,  avg # of iterations =  3.5

     negative rho (up, down):  1.401E-03 0.000E+00

     total cpu time spent up to now is     1466.5 secs

     total energy              =    -208.58913013 Ry
     Harris-Foulkes estimate   =    -208.58913013 Ry
     estimated scf accuracy    <          9.3E-09 Ry

     iteration # 46     ecut=    30.00 Ry     beta= 0.30
     CG style diagonalization
     ethr =  6.20E-11,  avg # of iterations =  3.2

     negative rho (up, down):  1.403E-03 0.000E+00

     total cpu time spent up to now is     1498.0 secs

     total energy              =    -208.58913012 Ry
     Harris-Foulkes estimate   =    -208.58913015 Ry
     estimated scf accuracy    <       0.00000118 Ry

     iteration # 47     ecut=    30.00 Ry     beta= 0.30
     CG style diagonalization
     ethr =  6.20E-11,  avg # of iterations =  3.4

     negative rho (up, down):  1.402E-03 0.000E+00

     total cpu time spent up to now is     1530.2 secs

     total energy              =    -208.58913013 Ry
     Harris-Foulkes estimate   =    -208.58913014 Ry
     estimated scf accuracy    <       0.00000018 Ry

     iteration # 48     ecut=    30.00 Ry     beta= 0.30
     CG style diagonalization
     ethr =  6.20E-11,  avg # of iterations =  3.0

     negative rho (up, down):  1.401E-03 0.000E+00

     total cpu time spent up to now is     1559.6 secs

     total energy              =    -208.58913013 Ry
     Harris-Foulkes estimate   =    -208.58913013 Ry
     estimated scf accuracy    <       0.00000003 Ry

     iteration # 49     ecut=    30.00 Ry     beta= 0.30
     CG style diagonalization
     ethr =  6.20E-11,  avg # of iterations =  3.0

     negative rho (up, down):  1.400E-03 0.000E+00

     total cpu time spent up to now is     1588.4 secs

     total energy              =    -208.58913013 Ry
     Harris-Foulkes estimate   =    -208.58913013 Ry
     estimated scf accuracy    <       0.00000002 Ry

     iteration # 50     ecut=    30.00 Ry     beta= 0.30
     CG style diagonalization
     ethr =  6.20E-11,  avg # of iterations =  3.0

     negative rho (up, down):  1.400E-03 0.000E+00

     total cpu time spent up to now is     1617.4 secs

     total energy              =    -208.58913013 Ry
     Harris-Foulkes estimate   =    -208.58913013 Ry
     estimated scf accuracy    <          1.0E-08 Ry

     iteration # 51     ecut=    30.00 Ry     beta= 0.30
     CG style diagonalization
     ethr =  6.20E-11,  avg # of iterations =  3.0

     negative rho (up, down):  1.400E-03 0.000E+00

     total cpu time spent up to now is     1646.2 secs

     total energy              =    -208.58913013 Ry
     Harris-Foulkes estimate   =    -208.58913013 Ry
     estimated scf accuracy    <          2.1E-12 Ry

     iteration # 52     ecut=    30.00 Ry     beta= 0.30
     CG style diagonalization
     ethr =  1.00E-13,  avg # of iterations =  3.2

     negative rho (up, down):  1.400E-03 0.000E+00

     total cpu time spent up to now is     1677.5 secs

     total energy              =    -208.58913013 Ry
     Harris-Foulkes estimate   =    -208.58913013 Ry
     estimated scf accuracy    <          2.3E-12 Ry

     iteration # 53     ecut=    30.00 Ry     beta= 0.30
     CG style diagonalization
     ethr =  1.00E-13,  avg # of iterations =  3.0

     negative rho (up, down):  1.400E-03 0.000E+00

     total cpu time spent up to now is     1706.5 secs

     total energy              =    -208.58913013 Ry
     Harris-Foulkes estimate   =    -208.58913013 Ry
     estimated scf accuracy    <          1.1E-12 Ry

     iteration # 54     ecut=    30.00 Ry     beta= 0.30
     CG style diagonalization
     ethr =  1.00E-13,  avg # of iterations =  3.0

     negative rho (up, down):  1.400E-03 0.000E+00

     total cpu time spent up to now is     1735.4 secs

     End of self-consistent calculation

     Number of k-points >= 100: set verbosity='high' to print the bands.

     the Fermi energy is    -3.4955 ev

!    total energy              =    -208.58913013 Ry
     Harris-Foulkes estimate   =    -208.58913013 Ry
     estimated scf accuracy    <          1.1E-13 Ry

     The total energy is the sum of the following terms:

     one-electron contribution =    -267.73440402 Ry
     hartree contribution      =     130.37007292 Ry
     xc contribution           =     -22.57219558 Ry
     ewald contribution        =     -48.61765687 Ry
     smearing contrib. (-TS)   =      -0.03494660 Ry

     convergence has been achieved in  54 iterations

     Writing output data file /home/edmondium/quantum/tempdir/pwscf.save/

     init_run     :      7.27s CPU      7.60s WALL (       1 calls)
     electrons    :   1688.04s CPU   1727.49s WALL (       1 calls)

     Called by init_run:
     wfcinit      :      6.95s CPU      7.20s WALL (       1 calls)
     potinit      :      0.02s CPU      0.04s WALL (       1 calls)
     hinit0       :      0.14s CPU      0.15s WALL (       1 calls)

     Called by electrons:
     c_bands      :   1503.55s CPU   1537.77s WALL (      54 calls)
     sum_band     :    179.22s CPU    183.87s WALL (      54 calls)
     v_of_rho     :      1.74s CPU      1.77s WALL (      55 calls)
     newd         :      2.92s CPU      3.42s WALL (      55 calls)
     mix_rho      :      0.53s CPU      0.56s WALL (      54 calls)

     Called by c_bands:
     init_us_2    :      8.99s CPU      9.17s WALL (   15805 calls)
     ccgdiagg     :   1150.27s CPU   1177.04s WALL (    7830 calls)
     wfcrot       :    346.83s CPU    354.26s WALL (    7830 calls)

     Called by sum_band:
     sum_band:bec :      0.12s CPU      0.13s WALL (    7830 calls)
     addusdens    :      2.93s CPU      4.17s WALL (      54 calls)

     Called by *cgdiagg:
     h_psi        :   1275.15s CPU   1304.30s WALL (  459191 calls)
     s_psi        :     30.42s CPU     31.54s WALL (  910552 calls)
     cdiaghg      :      2.63s CPU      2.68s WALL (    7830 calls)

     Called by h_psi:
     h_psi:calbec :     63.91s CPU     65.39s WALL (  459191 calls)
     vloc_psi     :   1138.93s CPU   1164.88s WALL (  459191 calls)
     add_vuspsi   :     63.35s CPU     65.04s WALL (  459191 calls)
     hs_1psi      :    974.52s CPU    997.12s WALL (  451361 calls)
     s_1psi       :     32.95s CPU     33.55s WALL (  451361 calls)

     General routines
     calbec       :     84.87s CPU     87.14s WALL (  918382 calls)
     fft          :      0.90s CPU      0.91s WALL (     604 calls)
     ffts         :      0.07s CPU      0.07s WALL (      54 calls)
     fftw         :   1129.47s CPU   1154.72s WALL ( 1489972 calls)

     Parallel routines
     fft_scatt_xy :    110.17s CPU    112.66s WALL ( 1490630 calls)
     fft_scatt_yz :    313.24s CPU    320.27s WALL ( 1490630 calls)

     PWSCF        :  28m15.92s CPU  28m56.44s WALL


   This run was terminated on:  13: 6:17  31Jan2021            

=------------------------------------------------------------------------------=
   JOB DONE.
=------------------------------------------------------------------------------=
