
     Program PWSCF v.6.5 starts on 28Jan2021 at  9:43: 6 

     This program is part of the open-source Quantum ESPRESSO suite
     for quantum simulation of materials; please cite
         "P. Giannozzi et al., J. Phys.:Condens. Matter 21 395502 (2009);
         "P. Giannozzi et al., J. Phys.:Condens. Matter 29 465901 (2017);
          URL http://www.quantum-espresso.org", 
     in publications or presentations arising from this work. More details at
     http://www.quantum-espresso.org/quote

     Parallel version (MPI), running on     4 processors

     MPI processes distributed on     1 nodes
     R & G space division:  proc/nbgrp/npool/nimage =       4
     Waiting for input...
     Reading input from standard input
     Message from routine read_cards :
     DEPRECATED: no units specified in ATOMIC_POSITIONS card
     Message from routine read_cards :
     ATOMIC_POSITIONS: units set to alat

     Current dimensions of program PWSCF are:
     Max number of different atomic species (ntypx) = 10
     Max number of k-points (npk) =  40000
     Max angular momentum in pseudopotentials (lmaxx) =  3

     Atomic positions and unit cell read from directory:
     /home/edmondium/quantum/tempdir/pwscf.save/                                                                                                                                                                                                                     

               file Ni.pz-nd-rrkjus.UPF: wavefunction(s)  4S renormalized

     Subspace diagonalization in iterative solution of the eigenvalue problem:
     a serial algorithm will be used


     Parallelization info
     --------------------
     sticks:   dense  smooth     PW     G-vecs:    dense   smooth      PW
     Min         175      63     30                 3084      682     216
     Max         176      64     31                 3085      686     218
     Sum         703     253    121                12339     2733     869



     bravais-lattice index     =            2
     lattice parameter (alat)  =       6.6594  a.u.
     unit-cell volume          =      73.8319 (a.u.)^3
     number of atoms/cell      =            4
     number of atomic types    =            1
     number of electrons       =        40.00
     number of Kohn-Sham states=           28
     kinetic-energy cutoff     =      42.0000  Ry
     charge density cutoff     =     462.0000  Ry
     Exchange-correlation= SLA PZ NOGX NOGC
                           (   1   1   0   0   0   0   0)

     celldm(1)=   6.659395  celldm(2)=   0.000000  celldm(3)=   0.000000
     celldm(4)=   0.000000  celldm(5)=   0.000000  celldm(6)=   0.000000

     crystal axes: (cart. coord. in units of alat)
               a(1) = (  -0.500000   0.000000   0.500000 )  
               a(2) = (   0.000000   0.500000   0.500000 )  
               a(3) = (  -0.500000   0.500000   0.000000 )  

     reciprocal axes: (cart. coord. in units 2 pi/alat)
               b(1) = ( -1.000000 -1.000000  1.000000 )  
               b(2) = (  1.000000  1.000000  1.000000 )  
               b(3) = ( -1.000000  1.000000 -1.000000 )  


     PseudoPot. # 1 for Ni read from file:
     /home/edmondium/quantum/pseudo/Ni.pz-nd-rrkjus.UPF
     MD5 check sum: 1dd41f782accaa3d7277678a275dfa91
     Pseudo is Ultrasoft + core correction, Zval = 10.0
     Generated by new atomic code, or converted to UPF format
     Using radial grid of 1203 points,  6 beta functions with: 
                l(1) =   0
                l(2) =   0
                l(3) =   1
                l(4) =   1
                l(5) =   2
                l(6) =   2
     Q(r) pseudized with 0 coefficients 


     atomic species   valence    mass     pseudopotential
        Ni            10.00    58.69340     Ni( 1.00)

     Starting magnetic structure 
     atomic species   magnetization
        Ni          -1.000

     No symmetry found



   Cartesian axes

     site n.     atom                  positions (alat units)
         1           Ni  tau(   1) = (   0.0000000   0.0000000   0.0000000  )
         2           Ni  tau(   2) = (   0.0000000   1.7550000   1.7550000  )
         3           Ni  tau(   3) = (   1.7550000   0.0000000   1.7550000  )
         4           Ni  tau(   4) = (   1.7550000   1.7550000   0.0000000  )

     number of k points=   511

     Number of k-points >= 100: set verbosity='high' to print them.

     Dense  grid:    12339 G-vectors     FFT dimensions: (  36,  36,  36)

     Smooth grid:     2733 G-vectors     FFT dimensions: (  20,  20,  20)

     Estimated max dynamical RAM per process >      12.62 MB

     Estimated total dynamical RAM >      50.48 MB
     Generating pointlists ...
     new r_m :   0.1429 (alat units)  0.9518 (a.u.) for type    1

     The potential is recalculated from file :
     /home/edmondium/quantum/tempdir/pwscf.save/charge-density

     Starting wfcs are random

     Band Structure Calculation
     CG style diagonalization
     c_bands:  1 eigenvalues not converged
     c_bands:  1 eigenvalues not converged
     c_bands:  1 eigenvalues not converged

     ethr =  2.50E-13,  avg # of iterations = 46.4

     total cpu time spent up to now is      288.7 secs

     End of band structure calculation

     Number of k-points >= 100: set verbosity='high' to print the bands.

     highest occupied, lowest unoccupied level (ev):    88.1782   64.9301



               ==================================================
                            POLARIZATION CALCULATION
                         !!! NOT THOROUGHLY TESTED !!!
               --------------------------------------------------


                     K-POINTS STRINGS USED IN CALCULATIONS
                     ~~~~~~~~~~~~~~~~~~~~~~~~~~~~~~~~~~~~~

       G-vector along string (2 pi/a): -1.00000  1.00000 -1.00000
       Modulus of the vector (1/bohr):  1.63420
       Number of k-points per string:   7
       Number of different strings  :  73


                               IONIC POLARIZATION
                               ~~~~~~~~~~~~~~~~~~

  ============================================================================
    Ion    Species    Charge              Position                Phase
  ----------------------------------------------------------------------------
     1        Ni      10.000       0.0000  0.0000  0.0000     0.00000 (mod 2)
     2        Ni      10.000       0.0000  1.7550  1.7550     0.00000 (mod 2)
     3        Ni      10.000       1.7550  0.0000  1.7550     0.90000 (mod 2)
     4        Ni      10.000       1.7550  1.7550  0.0000     0.00000 (mod 2)
  ----------------------------------------------------------------------------
                                               IONIC PHASE:   0.90000 (mod 2)
  ============================================================================


                            ELECTRONIC POLARIZATION
                            ~~~~~~~~~~~~~~~~~~~~~~~

  ============================================================================
   Spin    String     Weight      First k-point in string         Phase
  ----------------------------------------------------------------------------
    up        1      0.003906      0.0000  0.0000  0.0000     0.23506
    up        2      0.015625      0.0625  0.0625  0.0625     0.08537
    up        3      0.015625      0.1250  0.1250  0.1250     0.25246
    up        4      0.015625      0.1875  0.1875  0.1875     0.03812
    up        5      0.015625      0.2500  0.2500  0.2500     0.52596
    up        6      0.015625      0.3125  0.3125  0.3125     0.05512
    up        7      0.015625      0.3750  0.3750  0.3750     0.11276
    up        8      0.015625      0.4375  0.4375  0.4375    -0.15342
    up        9      0.007812     -0.5000 -0.5000 -0.5000     0.42438
    up       10      0.007812      0.0000  0.0000  0.1250     0.29738
    up       11      0.015625      0.0625  0.0625  0.1875    -0.00552
    up       12      0.015625      0.1250  0.1250  0.2500     0.32283
    up       13      0.015625      0.1875  0.1875  0.3125     0.35084
    up       14      0.015625      0.2500  0.2500  0.3750     0.45695
    up       15      0.015625      0.3125  0.3125  0.4375     0.52711
    up       16      0.015625      0.3750  0.3750  0.5000     0.52911
    up       17      0.015625     -0.5625 -0.5625 -0.4375     0.54279
    up       18      0.015625     -0.5000 -0.5000 -0.3750     0.54064
    up       19      0.015625     -0.4375 -0.4375 -0.3125     0.52407
    up       20      0.015625     -0.3750 -0.3750 -0.2500     0.55600
    up       21      0.015625     -0.3125 -0.3125 -0.1875     0.26103
    up       22      0.015625     -0.2500 -0.2500 -0.1250     0.19630
    up       23      0.015625     -0.1875 -0.1875 -0.0625     0.18474
    up       24      0.007812     -0.1250 -0.1250  0.0000    -0.17057
    up       25      0.007812      0.0000  0.0000  0.2500     0.64617
    up       26      0.015625      0.0625  0.0625  0.3125     0.30155
    up       27      0.015625      0.1250  0.1250  0.3750     0.42772
    up       28      0.015625      0.1875  0.1875  0.4375     0.46213
    up       29      0.015625      0.2500  0.2500  0.5000     0.57070
    up       30      0.015625      0.3125  0.3125  0.5625     0.51623
    up       31      0.015625     -0.6250 -0.6250 -0.3750     0.53245
    up       32      0.015625     -0.5625 -0.5625 -0.3125     0.54173
    up       33      0.015625     -0.5000 -0.5000 -0.2500     0.53301
    up       34      0.015625     -0.4375 -0.4375 -0.1875     0.52957
    up       35      0.015625     -0.3750 -0.3750 -0.1250     0.57317
    up       36      0.015625     -0.3125 -0.3125 -0.0625     0.52564
    up       37      0.007812     -0.2500 -0.2500  0.0000     0.44903
    up       38      0.007812      0.0000  0.0000  0.3750     0.04220
    up       39      0.015625      0.0625  0.0625  0.4375     0.19542
    up       40      0.015625      0.1250  0.1250  0.5000     0.47279
    up       41      0.015625      0.1875  0.1875  0.5625     0.57313
    up       42      0.015625      0.2500  0.2500  0.6250     0.56033
    up       43      0.015625     -0.6875 -0.6875 -0.3125     0.09827
    up       44      0.015625     -0.6250 -0.6250 -0.2500     0.53079
    up       45      0.015625     -0.5625 -0.5625 -0.1875     0.52683
    up       46      0.015625     -0.5000 -0.5000 -0.1250     0.07612
    up       47      0.015625     -0.4375 -0.4375 -0.0625     0.56029
    up       48      0.007812     -0.3750 -0.3750  0.0000     0.57351
    up       49      0.007812      0.0000  0.0000  0.5000     0.53778
    up       50      0.015625      0.0625  0.0625  0.5625     0.47361
    up       51      0.015625      0.1250  0.1250  0.6250     0.57141
    up       52      0.015625      0.1875  0.1875  0.6875     0.56180
    up       53      0.015625     -0.7500 -0.7500 -0.2500     0.56219
    up       54      0.015625     -0.6875 -0.6875 -0.1875     0.09006
    up       55      0.015625     -0.6250 -0.6250 -0.1250     0.55536
    up       56      0.015625     -0.5625 -0.5625 -0.0625     0.07709
    up       57      0.007812     -0.5000 -0.5000  0.0000     0.56037
    up       58      0.007812      0.0000  0.0000  0.6250     0.51170
    up       59      0.015625      0.0625  0.0625  0.6875     0.58099
    up       60      0.015625      0.1250  0.1250  0.7500     0.49191
    up       61      0.015625     -0.8125 -0.8125 -0.1875     0.09827
    up       62      0.015625     -0.7500 -0.7500 -0.1250     0.07520
    up       63      0.015625     -0.6875 -0.6875 -0.0625     0.54521
    up       64      0.007812     -0.6250 -0.6250  0.0000     0.54583
    up       65      0.007812      0.0000  0.0000  0.7500     0.42990
    up       66      0.015625      0.0625  0.0625  0.8125     0.53437
    up       67      0.015625     -0.8750 -0.8750 -0.1250     0.53245
    up       68      0.015625     -0.8125 -0.8125 -0.0625     0.52317
    up       69      0.007812     -0.7500 -0.7500  0.0000     0.55423
    up       70      0.007812      0.0000  0.0000  0.8750     0.09400
    up       71      0.015625     -0.9375 -0.9375 -0.0625     0.54279
    up       72      0.007812     -0.8750 -0.8750  0.0000     0.53897
    up       73      0.003906      0.0000  0.0000 -1.0000    -0.07151
  ----------------------------------------------------------------------------
   down     74       0.003906      0.0000  0.0000  0.0000     0.67471
   down     75       0.015625      0.0625  0.0625  0.0625     0.36882
   down     76       0.015625      0.1250  0.1250  0.1250     0.54986
   down     77       0.015625      0.1875  0.1875  0.1875     0.03812
   down     78       0.015625      0.2500  0.2500  0.2500     0.52597
   down     79       0.015625      0.3125  0.3125  0.3125     0.50298
   down     80       0.015625      0.3750  0.3750  0.3750    -0.18532
   down     81       0.015625      0.4375  0.4375  0.4375     0.45242
   down     82       0.007812     -0.5000 -0.5000 -0.5000     0.64914
   down     83       0.007812      0.0000  0.0000  0.1250    -0.19922
   down     84       0.015625      0.0625  0.0625  0.1875    -0.00552
   down     85       0.015625      0.1250  0.1250  0.2500     0.32283
   down     86       0.015625      0.1875  0.1875  0.3125     0.35084
   down     87       0.015625      0.2500  0.2500  0.3750     0.45695
   down     88       0.015625      0.3125  0.3125  0.4375     0.52711
   down     89       0.015625      0.3750  0.3750  0.5000     0.52911
   down     90       0.015625     -0.5625 -0.5625 -0.4375     0.54279
   down     91       0.015625     -0.5000 -0.5000 -0.3750     0.54064
   down     92       0.015625     -0.4375 -0.4375 -0.3125     0.52407
   down     93       0.015625     -0.3750 -0.3750 -0.2500     0.55600
   down     94       0.015625     -0.3125 -0.3125 -0.1875     0.26103
   down     95       0.015625     -0.2500 -0.2500 -0.1250     0.19630
   down     96       0.015625     -0.1875 -0.1875 -0.0625     0.18474
   down     97       0.007812     -0.1250 -0.1250  0.0000    -0.17057
   down     98       0.007812      0.0000  0.0000  0.2500     0.61699
   down     99       0.015625      0.0625  0.0625  0.3125     0.30155
   down    100       0.015625      0.1250  0.1250  0.3750     0.42772
   down    101       0.015625      0.1875  0.1875  0.4375     0.46213
   down    102       0.015625      0.2500  0.2500  0.5000     0.57070
   down    103       0.015625      0.3125  0.3125  0.5625     0.51623
   down    104       0.015625     -0.6250 -0.6250 -0.3750     0.53245
   down    105       0.015625     -0.5625 -0.5625 -0.3125     0.54173
   down    106       0.015625     -0.5000 -0.5000 -0.2500     0.53301
   down    107       0.015625     -0.4375 -0.4375 -0.1875     0.52957
   down    108       0.015625     -0.3750 -0.3750 -0.1250     0.57317
   down    109       0.015625     -0.3125 -0.3125 -0.0625     0.52564
   down    110       0.007812     -0.2500 -0.2500  0.0000     0.44903
   down    111       0.007812      0.0000  0.0000  0.3750     0.04220
   down    112       0.015625      0.0625  0.0625  0.4375     0.19542
   down    113       0.015625      0.1250  0.1250  0.5000     0.47279
   down    114       0.015625      0.1875  0.1875  0.5625     0.57313
   down    115       0.015625      0.2500  0.2500  0.6250     0.56033
   down    116       0.015625     -0.6875 -0.6875 -0.3125     0.09827
   down    117       0.015625     -0.6250 -0.6250 -0.2500     0.53079
   down    118       0.015625     -0.5625 -0.5625 -0.1875     0.52683
   down    119       0.015625     -0.5000 -0.5000 -0.1250     0.07612
   down    120       0.015625     -0.4375 -0.4375 -0.0625     0.56029
   down    121       0.007812     -0.3750 -0.3750  0.0000     0.57351
   down    122       0.007812      0.0000  0.0000  0.5000     0.53778
   down    123       0.015625      0.0625  0.0625  0.5625     0.47361
   down    124       0.015625      0.1250  0.1250  0.6250     0.57141
   down    125       0.015625      0.1875  0.1875  0.6875     0.56180
   down    126       0.015625     -0.7500 -0.7500 -0.2500     0.56219
   down    127       0.015625     -0.6875 -0.6875 -0.1875     0.09006
   down    128       0.015625     -0.6250 -0.6250 -0.1250     0.55536
   down    129       0.015625     -0.5625 -0.5625 -0.0625     0.07709
   down    130       0.007812     -0.5000 -0.5000  0.0000     0.56037
   down    131       0.007812      0.0000  0.0000  0.6250    -0.12773
   down    132       0.015625      0.0625  0.0625  0.6875     0.58099
   down    133       0.015625      0.1250  0.1250  0.7500     0.49191
   down    134       0.015625     -0.8125 -0.8125 -0.1875     0.09827
   down    135       0.015625     -0.7500 -0.7500 -0.1250     0.07520
   down    136       0.015625     -0.6875 -0.6875 -0.0625     0.54521
   down    137       0.007812     -0.6250 -0.6250  0.0000     0.54583
   down    138       0.007812      0.0000  0.0000  0.7500     0.53717
   down    139       0.015625      0.0625  0.0625  0.8125     0.53437
   down    140       0.015625     -0.8750 -0.8750 -0.1250     0.53245
   down    141       0.015625     -0.8125 -0.8125 -0.0625     0.52317
   down    142       0.007812     -0.7500 -0.7500  0.0000     0.55423
   down    143       0.007812      0.0000  0.0000  0.8750     0.42156
   down    144       0.015625     -0.9375 -0.9375 -0.0625     0.54279
   down    145       0.007812     -0.8750 -0.8750  0.0000     0.53897
   down    146       0.003906      0.0000  0.0000 -1.0000     0.72816
  ----------------------------------------------------------------------------
                                        Average phase (up):   0.38883
                                      Average phase (down):   0.41061
                                          ELECTRONIC PHASE:  -0.20056
  ============================================================================


                               SUMMARY OF PHASES
                               ~~~~~~~~~~~~~~~~~

                          Ionic Phase:  0.90000
                     Electronic Phase: -0.20056
                          TOTAL PHASE:  0.69944 MOD_TOT: 1


                             VALUES OF POLARIZATION
                             ~~~~~~~~~~~~~~~~~~~~~~

        The calculation of phases done along the direction of vector 3
        of the reciprocal lattice gives the following contribution to
        the polarization vector (in different units, and being Omega
        the volume of the unit cell):

           P =   3.2935933  (mod   4.7089033)  (e/Omega).bohr

           P =   0.0446093  (mod   0.0637787)  e/bohr^2

           P =   2.5503919  (mod   3.6463364)  C/m^2

        The polarization direction is:  (-0.70711 , 0.70711 , 0.00000 )


               ==================================================



     Writing output data file /home/edmondium/quantum/tempdir/pwscf.save/

     init_run     :      0.17s CPU      0.18s WALL (       1 calls)
     electrons    :    266.80s CPU    294.04s WALL (       1 calls)

     Called by init_run:
     wfcinit      :      0.00s CPU      0.00s WALL (       1 calls)
     potinit      :      0.01s CPU      0.01s WALL (       1 calls)
     hinit0       :      0.12s CPU      0.13s WALL (       1 calls)

     Called by electrons:
     c_bands      :    260.38s CPU    287.49s WALL (       1 calls)
     v_of_rho     :      0.00s CPU      0.00s WALL (       1 calls)
     newd         :      0.02s CPU      0.02s WALL (       1 calls)

     Called by c_bands:
     init_us_2    :      0.17s CPU      0.18s WALL (    2774 calls)
     ccgdiagg     :    249.91s CPU    275.88s WALL (    3487 calls)
     wfcrot       :     10.09s CPU     11.12s WALL (    3487 calls)

     Called by sum_band:

     Called by *cgdiagg:
     h_psi        :    149.31s CPU    164.88s WALL ( 1224555 calls)
     s_psi        :     22.64s CPU     25.42s WALL ( 2445623 calls)
     cdiaghg      :      1.36s CPU      1.49s WALL (    3487 calls)

     Called by h_psi:
     h_psi:calbec :     19.74s CPU     21.81s WALL ( 1224555 calls)
     vloc_psi     :     96.57s CPU    106.62s WALL ( 1224555 calls)
     add_vuspsi   :     27.69s CPU     30.85s WALL ( 1224555 calls)
     hs_1psi      :    161.61s CPU    178.29s WALL ( 1221068 calls)
     s_1psi       :     30.78s CPU     33.81s WALL ( 1221068 calls)

     General routines
     calbec       :     31.12s CPU     34.73s WALL ( 2447375 calls)
     fft          :      0.01s CPU      0.01s WALL (       9 calls)
     ffts         :      0.00s CPU      0.00s WALL (       2 calls)
     fftw         :     84.17s CPU     92.89s WALL ( 2637408 calls)
     interpolate  :      0.00s CPU      0.00s WALL (       2 calls)
     davcio       :      0.14s CPU      0.21s WALL (    3796 calls)

     Parallel routines
     fft_scatt_xy :     11.13s CPU     12.26s WALL ( 2637419 calls)
     fft_scatt_yz :     38.68s CPU     42.80s WALL ( 2637419 calls)

     PWSCF        :   4m28.53s CPU   4m55.98s WALL


   This run was terminated on:   9:48: 2  28Jan2021            

=------------------------------------------------------------------------------=
   JOB DONE.
=------------------------------------------------------------------------------=
