
     Program PWSCF v.6.5 starts on 28Jan2021 at  9:39:20 

     This program is part of the open-source Quantum ESPRESSO suite
     for quantum simulation of materials; please cite
         "P. Giannozzi et al., J. Phys.:Condens. Matter 21 395502 (2009);
         "P. Giannozzi et al., J. Phys.:Condens. Matter 29 465901 (2017);
          URL http://www.quantum-espresso.org", 
     in publications or presentations arising from this work. More details at
     http://www.quantum-espresso.org/quote

     Parallel version (MPI), running on     4 processors

     MPI processes distributed on     1 nodes
     R & G space division:  proc/nbgrp/npool/nimage =       4
     Waiting for input...
     Reading input from standard input
     Message from routine read_cards :
     DEPRECATED: no units specified in ATOMIC_POSITIONS card
     Message from routine read_cards :
     ATOMIC_POSITIONS: units set to alat

     Current dimensions of program PWSCF are:
     Max number of different atomic species (ntypx) = 10
     Max number of k-points (npk) =  40000
     Max angular momentum in pseudopotentials (lmaxx) =  3
               file Ni.pz-nd-rrkjus.UPF: wavefunction(s)  4S renormalized

     Subspace diagonalization in iterative solution of the eigenvalue problem:
     a serial algorithm will be used


     Parallelization info
     --------------------
     sticks:   dense  smooth     PW     G-vecs:    dense   smooth      PW
     Min         175      63     22                 3084      682     140
     Max         176      64     23                 3085      686     141
     Sum         703     253     91                12339     2733     561



     bravais-lattice index     =            2
     lattice parameter (alat)  =       6.6594  a.u.
     unit-cell volume          =      73.8319 (a.u.)^3
     number of atoms/cell      =            4
     number of atomic types    =            1
     number of electrons       =        40.00
     number of Kohn-Sham states=           25
     kinetic-energy cutoff     =      42.0000  Ry
     charge density cutoff     =     462.0000  Ry
     convergence threshold     =      1.0E-12
     mixing beta               =       0.3000
     number of iterations used =            8  plain     mixing
     Exchange-correlation= SLA PZ NOGX NOGC
                           (   1   1   0   0   0   0   0)

     celldm(1)=   6.659395  celldm(2)=   0.000000  celldm(3)=   0.000000
     celldm(4)=   0.000000  celldm(5)=   0.000000  celldm(6)=   0.000000

     crystal axes: (cart. coord. in units of alat)
               a(1) = (  -0.500000   0.000000   0.500000 )  
               a(2) = (   0.000000   0.500000   0.500000 )  
               a(3) = (  -0.500000   0.500000   0.000000 )  

     reciprocal axes: (cart. coord. in units 2 pi/alat)
               b(1) = ( -1.000000 -1.000000  1.000000 )  
               b(2) = (  1.000000  1.000000  1.000000 )  
               b(3) = ( -1.000000  1.000000 -1.000000 )  


     PseudoPot. # 1 for Ni read from file:
     /home/edmondium/quantum/pseudo/Ni.pz-nd-rrkjus.UPF
     MD5 check sum: 1dd41f782accaa3d7277678a275dfa91
     Pseudo is Ultrasoft + core correction, Zval = 10.0
     Generated by new atomic code, or converted to UPF format
     Using radial grid of 1203 points,  6 beta functions with: 
                l(1) =   0
                l(2) =   0
                l(3) =   1
                l(4) =   1
                l(5) =   2
                l(6) =   2
     Q(r) pseudized with 0 coefficients 


     atomic species   valence    mass     pseudopotential
        Ni            10.00    58.69340     Ni( 1.00)

     Starting magnetic structure 
     atomic species   magnetization
        Ni          -1.000

      6 Sym. Ops. (no inversion) found



   Cartesian axes

     site n.     atom                  positions (alat units)
         1           Ni  tau(   1) = (   0.0000000   0.0000000   0.0000000  )
         2           Ni  tau(   2) = (   0.0000000   1.7550000   1.7550000  )
         3           Ni  tau(   3) = (   1.7550000   0.0000000   1.7550000  )
         4           Ni  tau(   4) = (   1.7550000   1.7550000   0.0000000  )

     number of k points=   417  Marzari-Vanderbilt smearing, width (Ry)=  0.0200

     Number of k-points >= 100: set verbosity='high' to print them.

     Dense  grid:    12339 G-vectors     FFT dimensions: (  36,  36,  36)

     Smooth grid:     2733 G-vectors     FFT dimensions: (  20,  20,  20)

     Estimated max dynamical RAM per process >      41.12 MB

     Estimated total dynamical RAM >     164.48 MB
     Generating pointlists ...
     new r_m :   0.1429 (alat units)  0.9518 (a.u.) for type    1

     Initial potential from superposition of free atoms

     starting charge   39.99865, renormalised to   40.00000
     Starting wfcs are random

     total cpu time spent up to now is        3.2 secs

     Self-consistent Calculation

     iteration #  1     ecut=    42.00 Ry     beta= 0.30
     CG style diagonalization
     ethr =  1.00E-02,  avg # of iterations =  7.6

     total cpu time spent up to now is       40.1 secs

     total energy              =    -323.79542767 Ry
     Harris-Foulkes estimate   =    -320.23767087 Ry
     estimated scf accuracy    <      11.97014411 Ry

     total magnetization       =    -2.07 Bohr mag/cell
     absolute magnetization    =     2.07 Bohr mag/cell

     iteration #  2     ecut=    42.00 Ry     beta= 0.30
     CG style diagonalization
     ethr =  1.00E-02,  avg # of iterations =  3.0

     total cpu time spent up to now is       52.9 secs

     total energy              =    -327.19898154 Ry
     Harris-Foulkes estimate   =    -324.00294016 Ry
     estimated scf accuracy    <       5.74637948 Ry

     total magnetization       =    -1.57 Bohr mag/cell
     absolute magnetization    =     1.57 Bohr mag/cell

     iteration #  3     ecut=    42.00 Ry     beta= 0.30
     CG style diagonalization
     ethr =  1.00E-02,  avg # of iterations =  3.1

     total cpu time spent up to now is       65.6 secs

     total energy              =    -327.50424482 Ry
     Harris-Foulkes estimate   =    -327.55555769 Ry
     estimated scf accuracy    <       0.17507571 Ry

     total magnetization       =    -0.21 Bohr mag/cell
     absolute magnetization    =     0.21 Bohr mag/cell

     iteration #  4     ecut=    42.00 Ry     beta= 0.30
     CG style diagonalization
     ethr =  4.38E-04,  avg # of iterations =  3.9

     total cpu time spent up to now is       81.8 secs

     total energy              =    -327.54937171 Ry
     Harris-Foulkes estimate   =    -327.56187510 Ry
     estimated scf accuracy    <       0.02418121 Ry

     total magnetization       =     0.01 Bohr mag/cell
     absolute magnetization    =     0.02 Bohr mag/cell

     iteration #  5     ecut=    42.00 Ry     beta= 0.30
     CG style diagonalization
     c_bands:  1 eigenvalues not converged
     c_bands:  1 eigenvalues not converged
     c_bands:  1 eigenvalues not converged
     c_bands:  1 eigenvalues not converged
     ethr =  6.05E-05,  avg # of iterations =  3.5

     total cpu time spent up to now is       96.2 secs

     total energy              =    -327.55412721 Ry
     Harris-Foulkes estimate   =    -327.55390549 Ry
     estimated scf accuracy    <       0.00088237 Ry

     total magnetization       =    -0.02 Bohr mag/cell
     absolute magnetization    =     0.02 Bohr mag/cell

     iteration #  6     ecut=    42.00 Ry     beta= 0.30
     CG style diagonalization
     c_bands:  1 eigenvalues not converged
     c_bands:  1 eigenvalues not converged
     c_bands:  1 eigenvalues not converged
     c_bands:  1 eigenvalues not converged
     c_bands:  1 eigenvalues not converged
     c_bands:  1 eigenvalues not converged
     c_bands:  1 eigenvalues not converged
     c_bands:  1 eigenvalues not converged
     c_bands:  1 eigenvalues not converged
     c_bands:  1 eigenvalues not converged
     c_bands:  1 eigenvalues not converged
     c_bands:  1 eigenvalues not converged
     c_bands:  1 eigenvalues not converged
     c_bands:  1 eigenvalues not converged
     c_bands:  1 eigenvalues not converged
     c_bands:  1 eigenvalues not converged
     c_bands:  1 eigenvalues not converged
     c_bands:  1 eigenvalues not converged
     c_bands:  1 eigenvalues not converged
     c_bands:  1 eigenvalues not converged
     c_bands:  1 eigenvalues not converged
     c_bands:  1 eigenvalues not converged
     c_bands:  1 eigenvalues not converged
     c_bands:  1 eigenvalues not converged
     c_bands:  1 eigenvalues not converged
     c_bands:  1 eigenvalues not converged
     c_bands:  1 eigenvalues not converged
     c_bands:  1 eigenvalues not converged
     c_bands:  1 eigenvalues not converged
     ethr =  2.21E-06,  avg # of iterations =  4.0

     total cpu time spent up to now is      113.0 secs

     total energy              =    -327.55434082 Ry
     Harris-Foulkes estimate   =    -327.55434817 Ry
     estimated scf accuracy    <       0.00002894 Ry

     total magnetization       =    -0.00 Bohr mag/cell
     absolute magnetization    =     0.00 Bohr mag/cell

     iteration #  7     ecut=    42.00 Ry     beta= 0.30
     CG style diagonalization
     c_bands:  1 eigenvalues not converged
     ethr =  7.23E-08,  avg # of iterations =  3.7

     total cpu time spent up to now is      128.1 secs

     total energy              =    -327.55435649 Ry
     Harris-Foulkes estimate   =    -327.55435058 Ry
     estimated scf accuracy    <       0.00000640 Ry

     total magnetization       =    -0.00 Bohr mag/cell
     absolute magnetization    =     0.00 Bohr mag/cell

     iteration #  8     ecut=    42.00 Ry     beta= 0.30
     CG style diagonalization
     ethr =  1.60E-08,  avg # of iterations =  3.3

     total cpu time spent up to now is      141.2 secs

     total energy              =    -327.55435833 Ry
     Harris-Foulkes estimate   =    -327.55435779 Ry
     estimated scf accuracy    <       0.00000054 Ry

     total magnetization       =    -0.00 Bohr mag/cell
     absolute magnetization    =     0.00 Bohr mag/cell

     iteration #  9     ecut=    42.00 Ry     beta= 0.30
     CG style diagonalization
     ethr =  1.34E-09,  avg # of iterations =  3.3

     total cpu time spent up to now is      154.5 secs

     total energy              =    -327.55435862 Ry
     Harris-Foulkes estimate   =    -327.55435840 Ry
     estimated scf accuracy    <       0.00000013 Ry

     total magnetization       =    -0.00 Bohr mag/cell
     absolute magnetization    =     0.00 Bohr mag/cell

     iteration # 10     ecut=    42.00 Ry     beta= 0.30
     CG style diagonalization
     ethr =  3.16E-10,  avg # of iterations =  3.3

     total cpu time spent up to now is      168.0 secs

     total energy              =    -327.55435876 Ry
     Harris-Foulkes estimate   =    -327.55435865 Ry
     estimated scf accuracy    <          2.0E-09 Ry

     total magnetization       =    -0.00 Bohr mag/cell
     absolute magnetization    =     0.00 Bohr mag/cell

     iteration # 11     ecut=    42.00 Ry     beta= 0.30
     CG style diagonalization
     ethr =  5.12E-12,  avg # of iterations =  4.0

     total cpu time spent up to now is      184.5 secs

     total energy              =    -327.55435882 Ry
     Harris-Foulkes estimate   =    -327.55435876 Ry
     estimated scf accuracy    <          5.9E-10 Ry

     total magnetization       =    -0.00 Bohr mag/cell
     absolute magnetization    =     0.00 Bohr mag/cell

     iteration # 12     ecut=    42.00 Ry     beta= 0.30
     CG style diagonalization
     ethr =  1.47E-12,  avg # of iterations =  3.3

     total cpu time spent up to now is      197.7 secs

     total energy              =    -327.55435885 Ry
     Harris-Foulkes estimate   =    -327.55435882 Ry
     estimated scf accuracy    <          1.7E-11 Ry

     total magnetization       =    -0.00 Bohr mag/cell
     absolute magnetization    =     0.00 Bohr mag/cell

     iteration # 13     ecut=    42.00 Ry     beta= 0.30
     CG style diagonalization
     ethr =  1.00E-13,  avg # of iterations =  3.6

     total cpu time spent up to now is      212.9 secs

     total energy              =    -327.55435886 Ry
     Harris-Foulkes estimate   =    -327.55435885 Ry
     estimated scf accuracy    <          1.2E-11 Ry

     total magnetization       =    -0.00 Bohr mag/cell
     absolute magnetization    =     0.00 Bohr mag/cell

     iteration # 14     ecut=    42.00 Ry     beta= 0.30
     CG style diagonalization
     ethr =  1.00E-13,  avg # of iterations =  3.0

     Magnetic moment per site:
     atom:    1    charge:    6.2016    magn:   -0.0000    constr:    0.0000
     atom:    2    charge:    6.2007    magn:   -0.0000    constr:    0.0000
     atom:    3    charge:    6.2007    magn:   -0.0000    constr:    0.0000
     atom:    4    charge:    6.2007    magn:   -0.0000    constr:    0.0000

     total cpu time spent up to now is      225.0 secs

     End of self-consistent calculation

     Number of k-points >= 100: set verbosity='high' to print the bands.

     the Fermi energy is    69.0151 ev

!    total energy              =    -327.55435888 Ry
     Harris-Foulkes estimate   =    -327.55435886 Ry
     estimated scf accuracy    <          4.6E-13 Ry

     The total energy is the sum of the following terms:

     one-electron contribution =     132.16775577 Ry
     hartree contribution      =      56.35535978 Ry
     xc contribution           =    -136.13145330 Ry
     ewald contribution        =    -379.94617150 Ry
     smearing contrib. (-TS)   =       0.00015037 Ry

     total magnetization       =    -0.00 Bohr mag/cell
     absolute magnetization    =     0.00 Bohr mag/cell

     convergence has been achieved in  14 iterations

     Writing output data file /home/edmondium/quantum/tempdir/pwscf.save/

     init_run     :      2.53s CPU      2.82s WALL (       1 calls)
     electrons    :    200.47s CPU    221.85s WALL (       1 calls)

     Called by init_run:
     wfcinit      :      2.32s CPU      2.56s WALL (       1 calls)
     potinit      :      0.01s CPU      0.01s WALL (       1 calls)
     hinit0       :      0.16s CPU      0.17s WALL (       1 calls)

     Called by electrons:
     c_bands      :    187.05s CPU    207.12s WALL (      14 calls)
     sum_band     :     13.11s CPU     14.40s WALL (      14 calls)
     v_of_rho     :      0.05s CPU      0.06s WALL (      15 calls)
     newd         :      0.23s CPU      0.24s WALL (      15 calls)
     mix_rho      :      0.02s CPU      0.03s WALL (      14 calls)

     Called by c_bands:
     init_us_2    :      1.33s CPU      1.47s WALL (   24186 calls)
     ccgdiagg     :    159.62s CPU    176.74s WALL (   11676 calls)
     wfcrot       :     28.15s CPU     31.17s WALL (   11676 calls)

     Called by sum_band:
     sum_band:bec :      0.25s CPU      0.28s WALL (   11676 calls)
     addusdens    :      0.40s CPU      0.42s WALL (      14 calls)

     Called by *cgdiagg:
     h_psi        :    113.89s CPU    126.20s WALL (  840029 calls)
     s_psi        :     16.53s CPU     18.64s WALL ( 1668382 calls)
     cdiaghg      :      3.54s CPU      3.91s WALL (   11676 calls)

     Called by h_psi:
     h_psi:calbec :     14.35s CPU     15.90s WALL (  840029 calls)
     vloc_psi     :     75.86s CPU     84.03s WALL (  840029 calls)
     add_vuspsi   :     19.94s CPU     22.29s WALL (  840029 calls)
     hs_1psi      :    106.00s CPU    117.35s WALL (  828353 calls)
     s_1psi       :     21.53s CPU     23.75s WALL (  828353 calls)

     General routines
     calbec       :     23.12s CPU     25.91s WALL ( 1680058 calls)
     fft          :      0.06s CPU      0.07s WALL (     159 calls)
     ffts         :      0.00s CPU      0.00s WALL (      58 calls)
     fftw         :     73.82s CPU     81.64s WALL ( 2532406 calls)
     interpolate  :      0.01s CPU      0.02s WALL (      30 calls)

     Parallel routines
     fft_scatt_xy :     10.35s CPU     11.45s WALL ( 2532623 calls)
     fft_scatt_yz :     33.69s CPU     37.26s WALL ( 2532623 calls)

     PWSCF        :   3m23.90s CPU   3m45.68s WALL


   This run was terminated on:   9:43: 6  28Jan2021            

=------------------------------------------------------------------------------=
   JOB DONE.
=------------------------------------------------------------------------------=
