
     Program PWSCF v.6.5 starts on 28Jan2021 at  9:50:19 

     This program is part of the open-source Quantum ESPRESSO suite
     for quantum simulation of materials; please cite
         "P. Giannozzi et al., J. Phys.:Condens. Matter 21 395502 (2009);
         "P. Giannozzi et al., J. Phys.:Condens. Matter 29 465901 (2017);
          URL http://www.quantum-espresso.org", 
     in publications or presentations arising from this work. More details at
     http://www.quantum-espresso.org/quote

     Parallel version (MPI), running on     4 processors

     MPI processes distributed on     1 nodes
     R & G space division:  proc/nbgrp/npool/nimage =       4
     Waiting for input...
     Reading input from standard input

     Current dimensions of program PWSCF are:
     Max number of different atomic species (ntypx) = 10
     Max number of k-points (npk) =  40000
     Max angular momentum in pseudopotentials (lmaxx) =  3

     Subspace diagonalization in iterative solution of the eigenvalue problem:
     a serial algorithm will be used


     Parallelization info
     --------------------
     sticks:   dense  smooth     PW     G-vecs:    dense   smooth      PW
     Min          78      78     24                11654    11654    2002
     Max          79      79     25                11707    11707    2019
     Sum         313     313     97                46681    46681    8029



     bravais-lattice index     =            4
     lattice parameter (alat)  =       6.2531  a.u.
     unit-cell volume          =    2110.0798 (a.u.)^3
     number of atoms/cell      =            1
     number of atomic types    =            1
     number of electrons       =        11.00
     number of Kohn-Sham states=           25
     kinetic-energy cutoff     =      30.0000  Ry
     charge density cutoff     =     120.0000  Ry
     convergence threshold     =      1.0E-12
     mixing beta               =       0.3000
     number of iterations used =            8  plain     mixing
     Exchange-correlation= SLA PW PBE PBE
                           (   1   4   3   4   0   0   0)

     celldm(1)=   6.253104  celldm(2)=   0.000000  celldm(3)=   9.965093
     celldm(4)=   0.000000  celldm(5)=   0.000000  celldm(6)=   0.000000

     crystal axes: (cart. coord. in units of alat)
               a(1) = (   1.000000   0.000000   0.000000 )  
               a(2) = (  -0.500000   0.866025   0.000000 )  
               a(3) = (   0.000000   0.000000   9.965093 )  

     reciprocal axes: (cart. coord. in units 2 pi/alat)
               b(1) = (  1.000000  0.577350 -0.000000 )  
               b(2) = (  0.000000  1.154701  0.000000 )  
               b(3) = (  0.000000 -0.000000  0.100350 )  


     PseudoPot. # 1 for Sc read from file:
     /home/edmondium/quantum/pseudo/Sc.pbe-nsp-van.UPF
     MD5 check sum: 9a2ca392f5f56ee6ede1712a20ba6d2f
     Pseudo is Ultrasoft + core correction, Zval = 11.0
     Generated by new atomic code, or converted to UPF format
     Using radial grid of  849 points,  6 beta functions with: 
                l(1) =   0
                l(2) =   0
                l(3) =   1
                l(4) =   1
                l(5) =   2
                l(6) =   2
     Q(r) pseudized with  6 coefficients,  rinner =    1.200   1.200   1.200
                                                       1.200   1.200

     atomic species   valence    mass     pseudopotential
        Sc            11.00    44.95591     Sc( 1.00)

     24 Sym. Ops., with inversion, found



   Cartesian axes

     site n.     atom                  positions (alat units)
         1           Sc  tau(   1) = (   0.0000000   0.0000000   0.0000000  )

     number of k points=   270  Marzari-Vanderbilt smearing, width (Ry)=  0.0200

     Number of k-points >= 100: set verbosity='high' to print them.

     Dense  grid:    46681 G-vectors     FFT dimensions: (  24,  24, 225)

     Estimated max dynamical RAM per process >     192.89 MB

     Estimated total dynamical RAM >     771.55 MB

     Initial potential from superposition of free atoms

     starting charge   10.99760, renormalised to   11.00000

     negative rho (up, down):  6.504E-04 0.000E+00
     Starting wfcs are random

     total cpu time spent up to now is       11.6 secs

     Self-consistent Calculation

     iteration #  1     ecut=    30.00 Ry     beta= 0.30
     CG style diagonalization
     ethr =  1.00E-02,  avg # of iterations =  9.1

     Threshold (ethr) on eigenvalues was too large:
     Diagonalizing with lowered threshold

     CG style diagonalization
     c_bands:  1 eigenvalues not converged
     c_bands:  1 eigenvalues not converged
     c_bands:  1 eigenvalues not converged
     c_bands:  1 eigenvalues not converged
     c_bands:  1 eigenvalues not converged
     c_bands:  1 eigenvalues not converged
     c_bands:  1 eigenvalues not converged
     c_bands:  1 eigenvalues not converged
     c_bands:  1 eigenvalues not converged
     c_bands:  1 eigenvalues not converged
     c_bands:  1 eigenvalues not converged
     c_bands:  1 eigenvalues not converged
     c_bands:  1 eigenvalues not converged
     c_bands:  1 eigenvalues not converged
     c_bands:  1 eigenvalues not converged
     c_bands:  1 eigenvalues not converged
     c_bands:  1 eigenvalues not converged
     c_bands:  1 eigenvalues not converged
     c_bands:  2 eigenvalues not converged
     c_bands:  1 eigenvalues not converged
     c_bands:  1 eigenvalues not converged
     c_bands:  1 eigenvalues not converged
     c_bands:  2 eigenvalues not converged
     c_bands:  1 eigenvalues not converged
     c_bands:  1 eigenvalues not converged
     c_bands:  1 eigenvalues not converged
     c_bands:  1 eigenvalues not converged
     c_bands:  1 eigenvalues not converged
     c_bands:  1 eigenvalues not converged
     ethr =  5.17E-04,  avg # of iterations =  7.4

     negative rho (up, down):  5.477E-04 0.000E+00

     total cpu time spent up to now is      257.0 secs

     total energy              =     -94.16580738 Ry
     Harris-Foulkes estimate   =     -94.19451860 Ry
     estimated scf accuracy    <       0.09119148 Ry

     iteration #  2     ecut=    30.00 Ry     beta= 0.30
     CG style diagonalization
     ethr =  8.29E-04,  avg # of iterations =  3.3

     negative rho (up, down):  5.739E-04 0.000E+00

     total cpu time spent up to now is      305.0 secs

     total energy              =     -94.19518721 Ry
     Harris-Foulkes estimate   =     -94.19925910 Ry
     estimated scf accuracy    <       0.01436989 Ry

     iteration #  3     ecut=    30.00 Ry     beta= 0.30
     CG style diagonalization
     ethr =  1.31E-04,  avg # of iterations =  4.3

     negative rho (up, down):  5.779E-04 0.000E+00

     total cpu time spent up to now is      368.2 secs

     total energy              =     -94.19900175 Ry
     Harris-Foulkes estimate   =     -94.19896804 Ry
     estimated scf accuracy    <       0.00159564 Ry

     iteration #  4     ecut=    30.00 Ry     beta= 0.30
     CG style diagonalization
     c_bands:  1 eigenvalues not converged
     c_bands:  1 eigenvalues not converged
     c_bands:  1 eigenvalues not converged
     c_bands:  1 eigenvalues not converged
     c_bands:  1 eigenvalues not converged
     c_bands:  2 eigenvalues not converged
     c_bands:  1 eigenvalues not converged
     c_bands:  1 eigenvalues not converged
     c_bands:  1 eigenvalues not converged
     c_bands:  1 eigenvalues not converged
     c_bands:  1 eigenvalues not converged
     c_bands:  1 eigenvalues not converged
     c_bands:  1 eigenvalues not converged
     c_bands:  1 eigenvalues not converged
     c_bands:  1 eigenvalues not converged
     c_bands:  1 eigenvalues not converged
     c_bands:  1 eigenvalues not converged
     c_bands:  1 eigenvalues not converged
     c_bands:  1 eigenvalues not converged
     c_bands:  1 eigenvalues not converged
     c_bands:  1 eigenvalues not converged
     c_bands:  1 eigenvalues not converged
     c_bands:  1 eigenvalues not converged
     c_bands:  1 eigenvalues not converged
     c_bands:  1 eigenvalues not converged
     c_bands:  1 eigenvalues not converged
     c_bands:  1 eigenvalues not converged
     c_bands:  1 eigenvalues not converged
     c_bands:  1 eigenvalues not converged
     c_bands:  1 eigenvalues not converged
     c_bands:  1 eigenvalues not converged
     c_bands:  1 eigenvalues not converged
     c_bands:  1 eigenvalues not converged
     c_bands:  1 eigenvalues not converged
     c_bands:  1 eigenvalues not converged
     c_bands:  1 eigenvalues not converged
     c_bands:  1 eigenvalues not converged
     c_bands:  1 eigenvalues not converged
     c_bands:  2 eigenvalues not converged
     c_bands:  1 eigenvalues not converged
     c_bands:  1 eigenvalues not converged
     c_bands:  1 eigenvalues not converged
     c_bands:  1 eigenvalues not converged
     c_bands:  1 eigenvalues not converged
     c_bands:  1 eigenvalues not converged
     c_bands:  1 eigenvalues not converged
     c_bands:  1 eigenvalues not converged
     c_bands:  1 eigenvalues not converged
     c_bands:  1 eigenvalues not converged
     c_bands:  1 eigenvalues not converged
     c_bands:  1 eigenvalues not converged
     c_bands:  1 eigenvalues not converged
     ethr =  1.45E-05,  avg # of iterations =  5.5

     negative rho (up, down):  6.229E-04 0.000E+00

     total cpu time spent up to now is      448.0 secs

     total energy              =     -94.19997657 Ry
     Harris-Foulkes estimate   =     -94.19984924 Ry
     estimated scf accuracy    <       0.00057706 Ry

     iteration #  5     ecut=    30.00 Ry     beta= 0.30
     CG style diagonalization
     c_bands:  1 eigenvalues not converged
     c_bands:  1 eigenvalues not converged
     c_bands:  1 eigenvalues not converged
     c_bands:  1 eigenvalues not converged
     c_bands:  1 eigenvalues not converged
     c_bands:  1 eigenvalues not converged
     c_bands:  1 eigenvalues not converged
     c_bands:  1 eigenvalues not converged
     c_bands:  1 eigenvalues not converged
     c_bands:  1 eigenvalues not converged
     c_bands:  1 eigenvalues not converged
     c_bands:  2 eigenvalues not converged
     c_bands:  1 eigenvalues not converged
     c_bands:  1 eigenvalues not converged
     c_bands:  1 eigenvalues not converged
     c_bands:  1 eigenvalues not converged
     c_bands:  2 eigenvalues not converged
     c_bands:  1 eigenvalues not converged
     c_bands:  1 eigenvalues not converged
     c_bands:  1 eigenvalues not converged
     c_bands:  1 eigenvalues not converged
     c_bands:  1 eigenvalues not converged
     c_bands:  1 eigenvalues not converged
     c_bands:  1 eigenvalues not converged
     c_bands:  1 eigenvalues not converged
     c_bands:  1 eigenvalues not converged
     c_bands:  1 eigenvalues not converged
     c_bands:  1 eigenvalues not converged
     c_bands:  1 eigenvalues not converged
     c_bands:  1 eigenvalues not converged
     c_bands:  1 eigenvalues not converged
     c_bands:  1 eigenvalues not converged
     c_bands:  1 eigenvalues not converged
     c_bands:  1 eigenvalues not converged
     ethr =  5.25E-06,  avg # of iterations =  4.6

     negative rho (up, down):  6.126E-04 0.000E+00

     total cpu time spent up to now is      515.7 secs

     total energy              =     -94.19999468 Ry
     Harris-Foulkes estimate   =     -94.20052491 Ry
     estimated scf accuracy    <       0.00164577 Ry

     iteration #  6     ecut=    30.00 Ry     beta= 0.30
     CG style diagonalization
     c_bands:  1 eigenvalues not converged
     c_bands:  1 eigenvalues not converged
     c_bands:  1 eigenvalues not converged
     c_bands:  1 eigenvalues not converged
     c_bands:  1 eigenvalues not converged
     c_bands:  1 eigenvalues not converged
     c_bands:  1 eigenvalues not converged
     c_bands:  1 eigenvalues not converged
     c_bands:  1 eigenvalues not converged
     c_bands:  1 eigenvalues not converged
     c_bands:  1 eigenvalues not converged
     c_bands:  1 eigenvalues not converged
     ethr =  5.25E-06,  avg # of iterations =  3.4

     negative rho (up, down):  6.118E-04 0.000E+00

     total cpu time spent up to now is      565.5 secs

     total energy              =     -94.20025198 Ry
     Harris-Foulkes estimate   =     -94.20025364 Ry
     estimated scf accuracy    <       0.00001216 Ry

     iteration #  7     ecut=    30.00 Ry     beta= 0.30
     CG style diagonalization
     c_bands:  1 eigenvalues not converged
     c_bands:  1 eigenvalues not converged
     c_bands:  1 eigenvalues not converged
     c_bands:  1 eigenvalues not converged
     c_bands:  1 eigenvalues not converged
     c_bands:  1 eigenvalues not converged
     c_bands:  1 eigenvalues not converged
     c_bands:  1 eigenvalues not converged
     c_bands:  1 eigenvalues not converged
     c_bands:  1 eigenvalues not converged
     c_bands:  1 eigenvalues not converged
     ethr =  1.11E-07,  avg # of iterations =  3.8

     negative rho (up, down):  6.130E-04 0.000E+00

     total cpu time spent up to now is      619.3 secs

     total energy              =     -94.20026159 Ry
     Harris-Foulkes estimate   =     -94.20026150 Ry
     estimated scf accuracy    <       0.00000553 Ry

     iteration #  8     ecut=    30.00 Ry     beta= 0.30
     CG style diagonalization
     c_bands:  1 eigenvalues not converged
     c_bands:  1 eigenvalues not converged
     ethr =  5.03E-08,  avg # of iterations =  3.5

     negative rho (up, down):  6.131E-04 0.000E+00

     total cpu time spent up to now is      669.4 secs

     total energy              =     -94.20026455 Ry
     Harris-Foulkes estimate   =     -94.20026468 Ry
     estimated scf accuracy    <       0.00000095 Ry

     iteration #  9     ecut=    30.00 Ry     beta= 0.30
     CG style diagonalization
     ethr =  8.65E-09,  avg # of iterations =  3.3

     negative rho (up, down):  6.128E-04 0.000E+00

     total cpu time spent up to now is      716.4 secs

     total energy              =     -94.20026492 Ry
     Harris-Foulkes estimate   =     -94.20026503 Ry
     estimated scf accuracy    <       0.00000028 Ry

     iteration # 10     ecut=    30.00 Ry     beta= 0.30
     CG style diagonalization
     ethr =  2.53E-09,  avg # of iterations =  3.2

     negative rho (up, down):  6.127E-04 0.000E+00

     total cpu time spent up to now is      762.0 secs

     total energy              =     -94.20026504 Ry
     Harris-Foulkes estimate   =     -94.20026505 Ry
     estimated scf accuracy    <       0.00000006 Ry

     iteration # 11     ecut=    30.00 Ry     beta= 0.30
     CG style diagonalization
     ethr =  5.14E-10,  avg # of iterations =  3.2

     negative rho (up, down):  6.127E-04 0.000E+00

     total cpu time spent up to now is      807.2 secs

     total energy              =     -94.20026506 Ry
     Harris-Foulkes estimate   =     -94.20026506 Ry
     estimated scf accuracy    <          4.1E-09 Ry

     iteration # 12     ecut=    30.00 Ry     beta= 0.30
     CG style diagonalization
     ethr =  3.70E-11,  avg # of iterations =  3.4

     negative rho (up, down):  6.127E-04 0.000E+00

     total cpu time spent up to now is      855.6 secs

     total energy              =     -94.20026506 Ry
     Harris-Foulkes estimate   =     -94.20026506 Ry
     estimated scf accuracy    <          2.9E-09 Ry

     iteration # 13     ecut=    30.00 Ry     beta= 0.30
     CG style diagonalization
     ethr =  2.66E-11,  avg # of iterations =  3.2

     negative rho (up, down):  6.127E-04 0.000E+00

     total cpu time spent up to now is      901.7 secs

     total energy              =     -94.20026506 Ry
     Harris-Foulkes estimate   =     -94.20026506 Ry
     estimated scf accuracy    <          2.6E-10 Ry

     iteration # 14     ecut=    30.00 Ry     beta= 0.30
     CG style diagonalization
     ethr =  2.33E-12,  avg # of iterations =  3.3

     negative rho (up, down):  6.127E-04 0.000E+00

     total cpu time spent up to now is      948.0 secs

     total energy              =     -94.20026506 Ry
     Harris-Foulkes estimate   =     -94.20026506 Ry
     estimated scf accuracy    <          6.2E-11 Ry

     iteration # 15     ecut=    30.00 Ry     beta= 0.30
     CG style diagonalization
     ethr =  5.65E-13,  avg # of iterations =  3.3

     negative rho (up, down):  6.127E-04 0.000E+00

     total cpu time spent up to now is      995.1 secs

     total energy              =     -94.20026506 Ry
     Harris-Foulkes estimate   =     -94.20026506 Ry
     estimated scf accuracy    <          2.3E-11 Ry

     iteration # 16     ecut=    30.00 Ry     beta= 0.30
     CG style diagonalization
     ethr =  2.09E-13,  avg # of iterations =  3.1

     negative rho (up, down):  6.127E-04 0.000E+00

     total cpu time spent up to now is     1039.0 secs

     total energy              =     -94.20026506 Ry
     Harris-Foulkes estimate   =     -94.20026506 Ry
     estimated scf accuracy    <          1.1E-11 Ry

     iteration # 17     ecut=    30.00 Ry     beta= 0.30
     CG style diagonalization
     ethr =  1.00E-13,  avg # of iterations =  3.0

     negative rho (up, down):  6.127E-04 0.000E+00

     total cpu time spent up to now is     1082.5 secs

     total energy              =     -94.20026506 Ry
     Harris-Foulkes estimate   =     -94.20026506 Ry
     estimated scf accuracy    <          2.6E-12 Ry

     iteration # 18     ecut=    30.00 Ry     beta= 0.30
     CG style diagonalization
     ethr =  1.00E-13,  avg # of iterations =  3.0

     negative rho (up, down):  6.127E-04 0.000E+00

     total cpu time spent up to now is     1125.3 secs

     total energy              =     -94.20026506 Ry
     Harris-Foulkes estimate   =     -94.20026506 Ry
     estimated scf accuracy    <          1.3E-12 Ry

     iteration # 19     ecut=    30.00 Ry     beta= 0.30
     CG style diagonalization
     ethr =  1.00E-13,  avg # of iterations =  3.0

     negative rho (up, down):  6.127E-04 0.000E+00

     total cpu time spent up to now is     1168.3 secs

     End of self-consistent calculation

     Number of k-points >= 100: set verbosity='high' to print the bands.

     the Fermi energy is    -2.4584 ev

!    total energy              =     -94.20026506 Ry
     Harris-Foulkes estimate   =     -94.20026506 Ry
     estimated scf accuracy    <          1.7E-14 Ry

     The total energy is the sum of the following terms:

     one-electron contribution =    -458.86218958 Ry
     hartree contribution      =     226.21774949 Ry
     xc contribution           =     -13.18550854 Ry
     ewald contribution        =     151.63669222 Ry
     smearing contrib. (-TS)   =      -0.00700866 Ry

     convergence has been achieved in  19 iterations

     Writing output data file /home/edmondium/quantum/tempdir/pwscf.save/

     init_run     :     10.79s CPU     11.31s WALL (       1 calls)
     electrons    :   1124.64s CPU   1156.71s WALL (       1 calls)

     Called by init_run:
     wfcinit      :     10.43s CPU     10.95s WALL (       1 calls)
     potinit      :      0.05s CPU      0.05s WALL (       1 calls)
     hinit0       :      0.13s CPU      0.13s WALL (       1 calls)

     Called by electrons:
     c_bands      :   1023.81s CPU   1053.39s WALL (      20 calls)
     sum_band     :     99.27s CPU    101.75s WALL (      20 calls)
     v_of_rho     :      0.46s CPU      0.47s WALL (      20 calls)
     newd         :      1.00s CPU      1.01s WALL (      20 calls)
     mix_rho      :      0.14s CPU      0.14s WALL (      20 calls)

     Called by c_bands:
     init_us_2    :      5.75s CPU      5.91s WALL (   11070 calls)
     ccgdiagg     :    844.05s CPU    868.90s WALL (    5400 calls)
     wfcrot       :    181.21s CPU    186.17s WALL (    5130 calls)

     Called by sum_band:
     sum_band:bec :      0.08s CPU      0.08s WALL (    5400 calls)
     addusdens    :      1.35s CPU      1.39s WALL (      20 calls)

     Called by *cgdiagg:
     h_psi        :    836.91s CPU    861.37s WALL (  422282 calls)
     s_psi        :     20.58s CPU     21.35s WALL (  839434 calls)
     cdiaghg      :      1.82s CPU      1.86s WALL (    5130 calls)

     Called by h_psi:
     h_psi:calbec :     50.34s CPU     51.82s WALL (  422282 calls)
     vloc_psi     :    731.60s CPU    752.97s WALL (  422282 calls)
     add_vuspsi   :     48.00s CPU     49.56s WALL (  422282 calls)
     hs_1psi      :    684.91s CPU    704.97s WALL (  417152 calls)
     s_1psi       :     27.91s CPU     28.55s WALL (  417152 calls)

     General routines
     calbec       :     66.81s CPU     69.05s WALL (  844834 calls)
     fft          :      0.23s CPU      0.23s WALL (     221 calls)
     ffts         :      0.02s CPU      0.02s WALL (      20 calls)
     fftw         :    697.33s CPU    717.31s WALL ( 1225804 calls)

     Parallel routines
     fft_scatt_xy :     84.19s CPU     86.60s WALL ( 1226045 calls)
     fft_scatt_yz :    200.13s CPU    206.63s WALL ( 1226045 calls)

     PWSCF        :  18m56.14s CPU  19m29.50s WALL


   This run was terminated on:  10: 9:49  28Jan2021            

=------------------------------------------------------------------------------=
   JOB DONE.
=------------------------------------------------------------------------------=
