
     Program PWSCF v.6.5 starts on 13Jan2021 at 21:46:30 

     This program is part of the open-source Quantum ESPRESSO suite
     for quantum simulation of materials; please cite
         "P. Giannozzi et al., J. Phys.:Condens. Matter 21 395502 (2009);
         "P. Giannozzi et al., J. Phys.:Condens. Matter 29 465901 (2017);
          URL http://www.quantum-espresso.org", 
     in publications or presentations arising from this work. More details at
     http://www.quantum-espresso.org/quote

     Parallel version (MPI), running on     2 processors

     MPI processes distributed on     1 nodes
     R & G space division:  proc/nbgrp/npool/nimage =       2
     Waiting for input...
     Reading input from standard input

     Current dimensions of program PWSCF are:
     Max number of different atomic species (ntypx) = 10
     Max number of k-points (npk) =  40000
     Max angular momentum in pseudopotentials (lmaxx) =  3

     Atomic positions and unit cell read from directory:
     /home/edmondium/Documents/qe-6.7/tempdir/pwscf.save/                                                                                                                                                                                                            


     Subspace diagonalization in iterative solution of the eigenvalue problem:
     a serial algorithm will be used


     Parallelization info
     --------------------
     sticks:   dense  smooth     PW     G-vecs:    dense   smooth      PW
     Min          42      42     15                 2848     2848     651
     Max          43      43     16                 2879     2879     664
     Sum          85      85     31                 5727     5727    1315



     bravais-lattice index     =            4
     lattice parameter (alat)  =       5.5762  a.u.
     unit-cell volume          =    1329.5399 (a.u.)^3
     number of atoms/cell      =            1
     number of atomic types    =            1
     number of electrons       =        12.00
     number of Kohn-Sham states=           28
     kinetic-energy cutoff     =      10.0000  Ry
     charge density cutoff     =      40.0000  Ry
     Exchange-correlation= SLA PW PBE PBE
                           (   1   4   3   4   0   0   0)

     celldm(1)=   5.576204  celldm(2)=   0.000000  celldm(3)=   8.854312
     celldm(4)=   0.000000  celldm(5)=   0.000000  celldm(6)=   0.000000

     crystal axes: (cart. coord. in units of alat)
               a(1) = (   1.000000   0.000000   0.000000 )  
               a(2) = (  -0.500000   0.866025   0.000000 )  
               a(3) = (   0.000000   0.000000   8.854312 )  

     reciprocal axes: (cart. coord. in units 2 pi/alat)
               b(1) = (  1.000000  0.577350 -0.000000 )  
               b(2) = (  0.000000  1.154701  0.000000 )  
               b(3) = (  0.000000 -0.000000  0.112939 )  


     PseudoPot. # 1 for Ti read from file:
     /home/edmondium/Documents/qe-6.7/pseudo/Ti.pbe-sp-van_ak.UPF
     MD5 check sum: f98fea3e8887528921fefa5636a534ca
     Pseudo is Ultrasoft, Zval = 12.0
     Generated by new atomic code, or converted to UPF format
     Using radial grid of  851 points,  6 beta functions with: 
                l(1) =   0
                l(2) =   0
                l(3) =   1
                l(4) =   1
                l(5) =   2
                l(6) =   2
     Q(r) pseudized with  8 coefficients,  rinner =    1.000   1.000   1.000
                                                       1.000   1.000

     atomic species   valence    mass     pseudopotential
        Ti            12.00    47.86700     Ti( 1.00)

     No symmetry found



   Cartesian axes

     site n.     atom                  positions (alat units)
         1           Ti  tau(   1) = (   0.0000000   0.0000000   0.0000000  )

     number of k points=   210

     Number of k-points >= 100: set verbosity='high' to print them.

     Dense  grid:     5727 G-vectors     FFT dimensions: (  12,  12, 100)

     Estimated max dynamical RAM per process >       9.71 MB

     Estimated total dynamical RAM >      19.43 MB

     The potential is recalculated from file :
     /home/edmondium/Documents/qe-6.7/tempdir/pwscf.save/charge-density


     negative rho (up, down):  1.456E-01 0.000E+00
     Starting wfcs are random

     Band Structure Calculation
     CG style diagonalization
     c_bands:  1 eigenvalues not converged
     c_bands:  1 eigenvalues not converged
     c_bands:  1 eigenvalues not converged
     c_bands:  1 eigenvalues not converged
     c_bands:  1 eigenvalues not converged
     c_bands:  1 eigenvalues not converged
     c_bands:  1 eigenvalues not converged
     c_bands:  1 eigenvalues not converged
     c_bands:  1 eigenvalues not converged

     ethr =  8.33E-13,  avg # of iterations = 45.8

     total cpu time spent up to now is      153.8 secs

     End of band structure calculation

     Number of k-points >= 100: set verbosity='high' to print the bands.

     highest occupied, lowest unoccupied level (ev):    -3.6269   -3.8405



               ==================================================
                            POLARIZATION CALCULATION
                         !!! NOT THOROUGHLY TESTED !!!
               --------------------------------------------------


                     K-POINTS STRINGS USED IN CALCULATIONS
                     ~~~~~~~~~~~~~~~~~~~~~~~~~~~~~~~~~~~~~

       G-vector along string (2 pi/a):  0.00000  0.00000  0.11294
       Modulus of the vector (1/bohr):  0.12726
       Number of k-points per string:   7
       Number of different strings  :  30


                               IONIC POLARIZATION
                               ~~~~~~~~~~~~~~~~~~

  ============================================================================
    Ion    Species    Charge              Position                Phase
  ----------------------------------------------------------------------------
     1        Ti      12.000       0.0000  0.0000  0.0000     0.00000 (mod 2)
  ----------------------------------------------------------------------------
                                               IONIC PHASE:   0.00000 (mod 2)
  ============================================================================


                            ELECTRONIC POLARIZATION
                            ~~~~~~~~~~~~~~~~~~~~~~~

  ============================================================================
    String     Weight      First k-point in string         Phase
  ----------------------------------------------------------------------------
       1      0.003906      0.0000  0.0000  0.0000     0.00000
       2      0.023437      0.0000  0.0722  0.0000     0.00000
       3      0.023437      0.0000  0.1443  0.0000     0.00000
       4      0.023437      0.0000  0.2165  0.0000    -0.00000
       5      0.023437      0.0000  0.2887  0.0000     0.00000
       6      0.023437      0.0000  0.3608  0.0000     1.00000
       7      0.023437      0.0000  0.4330  0.0000    -0.00000
       8      0.023437      0.0000  0.5052  0.0000     0.00000
       9      0.011719      0.0000 -0.5774  0.0000    -0.00000
      10      0.023437      0.0625  0.1083  0.0000    -0.00000
      11      0.046875      0.0625  0.1804  0.0000    -0.00000
      12      0.046875      0.0625  0.2526  0.0000    -0.00000
      13      0.046875      0.0625  0.3248  0.0000     0.00000
      14      0.046875      0.0625  0.3969  0.0000     1.00000
      15      0.046875      0.0625  0.4691  0.0000    -0.00000
      16      0.046875      0.0625  0.5413  0.0000     0.00000
      17      0.023437      0.1250  0.2165  0.0000     0.00000
      18      0.046875      0.1250  0.2887  0.0000     0.00000
      19      0.046875      0.1250  0.3608  0.0000     0.00000
      20      0.046875      0.1250  0.4330  0.0000     0.00000
      21      0.046875      0.1250  0.5052  0.0000    -0.00000
      22      0.023437      0.1250  0.5774  0.0000    -0.00000
      23      0.023437      0.1875  0.3248  0.0000     0.00000
      24      0.046875      0.1875  0.3969  0.0000     0.00000
      25      0.046875      0.1875  0.4691  0.0000    -0.00000
      26      0.046875      0.1875  0.5413  0.0000     0.00000
      27      0.023437      0.2500  0.4330  0.0000     0.00000
      28      0.046875      0.2500  0.5052  0.0000     0.00000
      29      0.023437      0.2500  0.5774  0.0000     0.00000
      30      0.023437      0.3125  0.5413  0.0000     0.00000
  ----------------------------------------------------------------------------
                                          ELECTRONIC PHASE:   0.07031
  ============================================================================


                               SUMMARY OF PHASES
                               ~~~~~~~~~~~~~~~~~

                          Ionic Phase:  0.00000
                     Electronic Phase:  0.07031
                          TOTAL PHASE:  0.07031 MOD_TOT: 2


                             VALUES OF POLARIZATION
                             ~~~~~~~~~~~~~~~~~~~~~~

        The calculation of phases done along the direction of vector 3
        of the reciprocal lattice gives the following contribution to
        the polarization vector (in different units, and being Omega
        the volume of the unit cell):

           P =   3.4715704  (mod  98.7468947)  (e/Omega).bohr

           P =   0.0026111  (mod   0.0742715)  e/bohr^2

           P =   0.1492815  (mod   4.2462284)  C/m^2

        The polarization direction is:  ( 0.00000 , 0.00000 , 1.00000 )


               ==================================================



     Writing output data file /home/edmondium/Documents/qe-6.7/tempdir/pwscf.save/

     init_run     :      0.21s CPU      0.23s WALL (       1 calls)
     electrons    :    141.20s CPU    152.89s WALL (       1 calls)

     Called by init_run:
     wfcinit      :      0.00s CPU      0.00s WALL (       1 calls)
     potinit      :      0.01s CPU      0.01s WALL (       1 calls)
     hinit0       :      0.17s CPU      0.17s WALL (       1 calls)

     Called by electrons:
     c_bands      :    140.72s CPU    152.39s WALL (       1 calls)
     v_of_rho     :      0.01s CPU      0.01s WALL (       1 calls)
     newd         :      0.00s CPU      0.02s WALL (       1 calls)

     Called by c_bands:
     init_us_2    :      0.13s CPU      0.14s WALL (     570 calls)
     ccgdiagg     :    130.50s CPU    141.48s WALL (     757 calls)
     wfcrot       :      9.87s CPU     10.53s WALL (     757 calls)

     Called by sum_band:

     Called by *cgdiagg:
     h_psi        :     87.78s CPU     95.11s WALL (  247462 calls)
     s_psi        :     12.40s CPU     13.54s WALL (  494167 calls)
     cdiaghg      :      0.52s CPU      0.54s WALL (     757 calls)

     Called by h_psi:
     h_psi:calbec :      9.04s CPU      9.79s WALL (  247462 calls)
     vloc_psi     :     71.36s CPU     77.31s WALL (  247462 calls)
     add_vuspsi   :      5.93s CPU      6.47s WALL (  247462 calls)
     hs_1psi      :     89.06s CPU     96.43s WALL (  246705 calls)
     s_1psi       :     14.75s CPU     15.90s WALL (  246705 calls)

     General routines
     calbec       :     15.55s CPU     17.07s WALL (  494527 calls)
     fft          :      0.00s CPU      0.00s WALL (      11 calls)
     fftw         :     59.93s CPU     64.98s WALL (  535802 calls)
     davcio       :      0.08s CPU      0.10s WALL (     780 calls)

     Parallel routines
     fft_scatt_xy :     10.15s CPU     10.98s WALL (  535813 calls)
     fft_scatt_yz :     13.87s CPU     15.21s WALL (  535813 calls)

     PWSCF        :   2m22.75s CPU   2m34.58s WALL


   This run was terminated on:  21:49: 5  13Jan2021            

=------------------------------------------------------------------------------=
   JOB DONE.
=------------------------------------------------------------------------------=
