
     Program PWSCF v.6.5 starts on 13Jan2021 at 21:37:42 

     This program is part of the open-source Quantum ESPRESSO suite
     for quantum simulation of materials; please cite
         "P. Giannozzi et al., J. Phys.:Condens. Matter 21 395502 (2009);
         "P. Giannozzi et al., J. Phys.:Condens. Matter 29 465901 (2017);
          URL http://www.quantum-espresso.org", 
     in publications or presentations arising from this work. More details at
     http://www.quantum-espresso.org/quote

     Parallel version (MPI), running on     2 processors

     MPI processes distributed on     1 nodes
     R & G space division:  proc/nbgrp/npool/nimage =       2
     Waiting for input...
     Reading input from standard input

     Current dimensions of program PWSCF are:
     Max number of different atomic species (ntypx) = 10
     Max number of k-points (npk) =  40000
     Max angular momentum in pseudopotentials (lmaxx) =  3

     Subspace diagonalization in iterative solution of the eigenvalue problem:
     a serial algorithm will be used


     Parallelization info
     --------------------
     sticks:   dense  smooth     PW     G-vecs:    dense   smooth      PW
     Min          42      42     15                 2848     2848     641
     Max          43      43     16                 2879     2879     650
     Sum          85      85     31                 5727     5727    1291



     bravais-lattice index     =            4
     lattice parameter (alat)  =       5.5762  a.u.
     unit-cell volume          =    1329.5399 (a.u.)^3
     number of atoms/cell      =            1
     number of atomic types    =            1
     number of electrons       =        12.00
     number of Kohn-Sham states=           25
     kinetic-energy cutoff     =      10.0000  Ry
     charge density cutoff     =      40.0000  Ry
     convergence threshold     =      1.0E-12
     mixing beta               =       0.3000
     number of iterations used =            8  plain     mixing
     Exchange-correlation= SLA PW PBE PBE
                           (   1   4   3   4   0   0   0)

     celldm(1)=   5.576204  celldm(2)=   0.000000  celldm(3)=   8.854312
     celldm(4)=   0.000000  celldm(5)=   0.000000  celldm(6)=   0.000000

     crystal axes: (cart. coord. in units of alat)
               a(1) = (   1.000000   0.000000   0.000000 )  
               a(2) = (  -0.500000   0.866025   0.000000 )  
               a(3) = (   0.000000   0.000000   8.854312 )  

     reciprocal axes: (cart. coord. in units 2 pi/alat)
               b(1) = (  1.000000  0.577350 -0.000000 )  
               b(2) = (  0.000000  1.154701  0.000000 )  
               b(3) = (  0.000000 -0.000000  0.112939 )  


     PseudoPot. # 1 for Ti read from file:
     /home/edmondium/Documents/qe-6.7/pseudo/Ti.pbe-sp-van_ak.UPF
     MD5 check sum: f98fea3e8887528921fefa5636a534ca
     Pseudo is Ultrasoft, Zval = 12.0
     Generated by new atomic code, or converted to UPF format
     Using radial grid of  851 points,  6 beta functions with: 
                l(1) =   0
                l(2) =   0
                l(3) =   1
                l(4) =   1
                l(5) =   2
                l(6) =   2
     Q(r) pseudized with  8 coefficients,  rinner =    1.000   1.000   1.000
                                                       1.000   1.000

     atomic species   valence    mass     pseudopotential
        Ti            12.00    47.86700     Ti( 1.00)

     24 Sym. Ops., with inversion, found



   Cartesian axes

     site n.     atom                  positions (alat units)
         1           Ti  tau(   1) = (   0.0000000   0.0000000   0.0000000  )

     number of k points=   270  Marzari-Vanderbilt smearing, width (Ry)=  0.0200

     Number of k-points >= 100: set verbosity='high' to print them.

     Dense  grid:     5727 G-vectors     FFT dimensions: (  12,  12, 100)

     Estimated max dynamical RAM per process >      47.05 MB

     Estimated total dynamical RAM >      94.11 MB

     Initial potential from superposition of free atoms

     starting charge   10.99996, renormalised to   12.00000

     negative rho (up, down):  6.435E-01 0.000E+00
     Starting wfcs are random

     total cpu time spent up to now is        3.8 secs

     Self-consistent Calculation

     iteration #  1     ecut=    10.00 Ry     beta= 0.30
     CG style diagonalization
     ethr =  1.00E-02,  avg # of iterations =  9.2

     negative rho (up, down):  2.271E-01 0.000E+00

     total cpu time spent up to now is       37.4 secs

     total energy              =    -107.84226546 Ry
     Harris-Foulkes estimate   =    -113.93044483 Ry
     estimated scf accuracy    <      12.34274192 Ry

     iteration #  2     ecut=    10.00 Ry     beta= 0.30
     CG style diagonalization
     ethr =  1.00E-02,  avg # of iterations =  7.2

     negative rho (up, down):  1.971E-01 0.000E+00

     total cpu time spent up to now is       64.5 secs

     total energy              =    -111.69239479 Ry
     Harris-Foulkes estimate   =    -112.45679142 Ry
     estimated scf accuracy    <       2.27239771 Ry

     iteration #  3     ecut=    10.00 Ry     beta= 0.30
     CG style diagonalization
     ethr =  1.00E-02,  avg # of iterations =  3.0

     negative rho (up, down):  1.526E-01 0.000E+00

     total cpu time spent up to now is       76.0 secs

     total energy              =    -110.99716780 Ry
     Harris-Foulkes estimate   =    -111.77162700 Ry
     estimated scf accuracy    <       1.09143004 Ry

     iteration #  4     ecut=    10.00 Ry     beta= 0.30
     CG style diagonalization
     ethr =  9.10E-03,  avg # of iterations =  4.1

     negative rho (up, down):  1.534E-01 0.000E+00

     total cpu time spent up to now is       92.0 secs

     total energy              =    -111.24873302 Ry
     Harris-Foulkes estimate   =    -111.24278262 Ry
     estimated scf accuracy    <       0.38197872 Ry

     iteration #  5     ecut=    10.00 Ry     beta= 0.30
     CG style diagonalization
     ethr =  3.18E-03,  avg # of iterations =  3.2

     negative rho (up, down):  1.294E-01 0.000E+00

     total cpu time spent up to now is      104.2 secs

     total energy              =    -111.22770943 Ry
     Harris-Foulkes estimate   =    -111.25171747 Ry
     estimated scf accuracy    <       0.37946101 Ry

     iteration #  6     ecut=    10.00 Ry     beta= 0.30
     CG style diagonalization
     ethr =  3.16E-03,  avg # of iterations =  3.1

     negative rho (up, down):  8.908E-02 0.000E+00

     total cpu time spent up to now is      116.3 secs

     total energy              =    -111.16588403 Ry
     Harris-Foulkes estimate   =    -111.24100104 Ry
     estimated scf accuracy    <       0.31124802 Ry

     iteration #  7     ecut=    10.00 Ry     beta= 0.30
     CG style diagonalization
     ethr =  2.59E-03,  avg # of iterations =  3.5

     negative rho (up, down):  8.808E-02 0.000E+00

     total cpu time spent up to now is      129.8 secs

     total energy              =    -111.66026520 Ry
     Harris-Foulkes estimate   =    -111.53830190 Ry
     estimated scf accuracy    <       0.90276421 Ry

     iteration #  8     ecut=    10.00 Ry     beta= 0.30
     CG style diagonalization
     ethr =  2.59E-03,  avg # of iterations =  3.0

     negative rho (up, down):  9.609E-02 0.000E+00

     total cpu time spent up to now is      141.4 secs

     total energy              =    -111.56460180 Ry
     Harris-Foulkes estimate   =    -111.66927610 Ry
     estimated scf accuracy    <       1.22398962 Ry

     iteration #  9     ecut=    10.00 Ry     beta= 0.30
     CG style diagonalization
     ethr =  2.59E-03,  avg # of iterations =  3.0

     negative rho (up, down):  1.127E-01 0.000E+00

     total cpu time spent up to now is      152.9 secs

     total energy              =    -111.31090529 Ry
     Harris-Foulkes estimate   =    -111.56899243 Ry
     estimated scf accuracy    <       0.98978595 Ry

     iteration # 10     ecut=    10.00 Ry     beta= 0.30
     CG style diagonalization
     ethr =  2.59E-03,  avg # of iterations =  3.0

     negative rho (up, down):  1.266E-01 0.000E+00

     total cpu time spent up to now is      164.4 secs

     total energy              =    -111.22413758 Ry
     Harris-Foulkes estimate   =    -111.33299291 Ry
     estimated scf accuracy    <       0.45011098 Ry

     iteration # 11     ecut=    10.00 Ry     beta= 0.30
     CG style diagonalization
     ethr =  2.59E-03,  avg # of iterations =  3.0

     negative rho (up, down):  1.323E-01 0.000E+00

     total cpu time spent up to now is      176.0 secs

     total energy              =    -111.17067935 Ry
     Harris-Foulkes estimate   =    -111.23417796 Ry
     estimated scf accuracy    <       0.22573662 Ry

     iteration # 12     ecut=    10.00 Ry     beta= 0.30
     CG style diagonalization
     ethr =  1.88E-03,  avg # of iterations =  3.1

     negative rho (up, down):  1.318E-01 0.000E+00

     total cpu time spent up to now is      187.8 secs

     total energy              =    -111.18134081 Ry
     Harris-Foulkes estimate   =    -111.17989882 Ry
     estimated scf accuracy    <       0.05988560 Ry

     iteration # 13     ecut=    10.00 Ry     beta= 0.30
     CG style diagonalization
     ethr =  4.99E-04,  avg # of iterations =  3.3

     negative rho (up, down):  1.632E-01 0.000E+00

     total cpu time spent up to now is      200.4 secs

     total energy              =    -111.13338825 Ry
     Harris-Foulkes estimate   =    -111.18142067 Ry
     estimated scf accuracy    <       0.06291305 Ry

     iteration # 14     ecut=    10.00 Ry     beta= 0.30
     CG style diagonalization
     c_bands:  1 eigenvalues not converged
     ethr =  4.99E-04,  avg # of iterations =  3.8

     negative rho (up, down):  1.602E-01 0.000E+00

     total cpu time spent up to now is      215.4 secs

     total energy              =    -111.20964799 Ry
     Harris-Foulkes estimate   =    -111.22212553 Ry
     estimated scf accuracy    <       0.31175739 Ry

     iteration # 15     ecut=    10.00 Ry     beta= 0.30
     CG style diagonalization
     ethr =  4.99E-04,  avg # of iterations =  3.0

     negative rho (up, down):  1.527E-01 0.000E+00

     total cpu time spent up to now is      227.0 secs

     total energy              =    -111.17757362 Ry
     Harris-Foulkes estimate   =    -111.21043321 Ry
     estimated scf accuracy    <       0.23479237 Ry

     iteration # 16     ecut=    10.00 Ry     beta= 0.30
     CG style diagonalization
     ethr =  4.99E-04,  avg # of iterations =  3.0

     negative rho (up, down):  1.466E-01 0.000E+00

     total cpu time spent up to now is      238.6 secs

     total energy              =    -111.16791414 Ry
     Harris-Foulkes estimate   =    -111.18352099 Ry
     estimated scf accuracy    <       0.08494208 Ry

     iteration # 17     ecut=    10.00 Ry     beta= 0.30
     CG style diagonalization
     ethr =  4.99E-04,  avg # of iterations =  3.0

     negative rho (up, down):  1.455E-01 0.000E+00

     total cpu time spent up to now is      256.9 secs

     total energy              =    -111.17074482 Ry
     Harris-Foulkes estimate   =    -111.17082659 Ry
     estimated scf accuracy    <       0.02563072 Ry

     iteration # 18     ecut=    10.00 Ry     beta= 0.30
     CG style diagonalization
     ethr =  2.14E-04,  avg # of iterations =  3.0

     negative rho (up, down):  1.492E-01 0.000E+00

     total cpu time spent up to now is      273.6 secs

     total energy              =    -111.17248538 Ry
     Harris-Foulkes estimate   =    -111.17075849 Ry
     estimated scf accuracy    <       0.02495461 Ry

     iteration # 19     ecut=    10.00 Ry     beta= 0.30
     CG style diagonalization
     ethr =  2.08E-04,  avg # of iterations =  3.0

     negative rho (up, down):  1.422E-01 0.000E+00

     total cpu time spent up to now is      288.6 secs

     total energy              =    -111.15355315 Ry
     Harris-Foulkes estimate   =    -111.17274152 Ry
     estimated scf accuracy    <       0.03541965 Ry

     iteration # 20     ecut=    10.00 Ry     beta= 0.30
     CG style diagonalization
     ethr =  2.08E-04,  avg # of iterations =  3.6

     negative rho (up, down):  1.449E-01 0.000E+00

     total cpu time spent up to now is      306.9 secs

     total energy              =    -111.16247562 Ry
     Harris-Foulkes estimate   =    -111.16964738 Ry
     estimated scf accuracy    <       0.02083381 Ry

     iteration # 21     ecut=    10.00 Ry     beta= 0.30
     CG style diagonalization
     ethr =  1.74E-04,  avg # of iterations =  3.1

     negative rho (up, down):  1.451E-01 0.000E+00

     total cpu time spent up to now is      322.6 secs

     total energy              =    -111.16559878 Ry
     Harris-Foulkes estimate   =    -111.16560415 Ry
     estimated scf accuracy    <       0.00007581 Ry

     iteration # 22     ecut=    10.00 Ry     beta= 0.30
     CG style diagonalization
     c_bands:  1 eigenvalues not converged
     c_bands:  2 eigenvalues not converged
     c_bands:  1 eigenvalues not converged
     c_bands:  1 eigenvalues not converged
     c_bands:  1 eigenvalues not converged
     c_bands:  1 eigenvalues not converged
     c_bands:  1 eigenvalues not converged
     c_bands:  1 eigenvalues not converged
     c_bands:  1 eigenvalues not converged
     c_bands:  1 eigenvalues not converged
     c_bands:  1 eigenvalues not converged
     c_bands:  1 eigenvalues not converged
     c_bands:  1 eigenvalues not converged
     c_bands:  1 eigenvalues not converged
     c_bands:  1 eigenvalues not converged
     c_bands:  1 eigenvalues not converged
     c_bands:  1 eigenvalues not converged
     ethr =  6.32E-07,  avg # of iterations =  4.1

     negative rho (up, down):  1.449E-01 0.000E+00

     total cpu time spent up to now is      343.7 secs

     total energy              =    -111.16559949 Ry
     Harris-Foulkes estimate   =    -111.16560247 Ry
     estimated scf accuracy    <       0.00008154 Ry

     iteration # 23     ecut=    10.00 Ry     beta= 0.30
     CG style diagonalization
     ethr =  6.32E-07,  avg # of iterations =  3.0

     negative rho (up, down):  1.431E-01 0.000E+00

     total cpu time spent up to now is      357.8 secs

     total energy              =    -111.16563920 Ry
     Harris-Foulkes estimate   =    -111.16560174 Ry
     estimated scf accuracy    <       0.00006096 Ry

     iteration # 24     ecut=    10.00 Ry     beta= 0.30
     CG style diagonalization
     ethr =  5.08E-07,  avg # of iterations =  3.0

     negative rho (up, down):  1.440E-01 0.000E+00

     total cpu time spent up to now is      373.9 secs

     total energy              =    -111.16563768 Ry
     Harris-Foulkes estimate   =    -111.16564300 Ry
     estimated scf accuracy    <       0.00009432 Ry

     iteration # 25     ecut=    10.00 Ry     beta= 0.30
     CG style diagonalization
     ethr =  5.08E-07,  avg # of iterations =  3.2

     negative rho (up, down):  1.441E-01 0.000E+00

     total cpu time spent up to now is      388.8 secs

     total energy              =    -111.16559416 Ry
     Harris-Foulkes estimate   =    -111.16564747 Ry
     estimated scf accuracy    <       0.00017244 Ry

     iteration # 26     ecut=    10.00 Ry     beta= 0.30
     CG style diagonalization
     ethr =  5.08E-07,  avg # of iterations =  3.0

     negative rho (up, down):  1.451E-01 0.000E+00

     total cpu time spent up to now is      400.1 secs

     total energy              =    -111.16559987 Ry
     Harris-Foulkes estimate   =    -111.16561912 Ry
     estimated scf accuracy    <       0.00003821 Ry

     iteration # 27     ecut=    10.00 Ry     beta= 0.30
     CG style diagonalization
     c_bands:  1 eigenvalues not converged
     ethr =  3.18E-07,  avg # of iterations =  3.0

     negative rho (up, down):  1.454E-01 0.000E+00

     total cpu time spent up to now is      411.7 secs

     total energy              =    -111.16559578 Ry
     Harris-Foulkes estimate   =    -111.16560477 Ry
     estimated scf accuracy    <       0.00000632 Ry

     iteration # 28     ecut=    10.00 Ry     beta= 0.30
     CG style diagonalization
     ethr =  5.27E-08,  avg # of iterations =  3.0

     negative rho (up, down):  1.457E-01 0.000E+00

     total cpu time spent up to now is      423.3 secs

     total energy              =    -111.16559514 Ry
     Harris-Foulkes estimate   =    -111.16559921 Ry
     estimated scf accuracy    <       0.00000929 Ry

     iteration # 29     ecut=    10.00 Ry     beta= 0.30
     CG style diagonalization
     ethr =  5.27E-08,  avg # of iterations =  3.0

     negative rho (up, down):  1.456E-01 0.000E+00

     total cpu time spent up to now is      434.8 secs

     total energy              =    -111.16559905 Ry
     Harris-Foulkes estimate   =    -111.16559736 Ry
     estimated scf accuracy    <       0.00000097 Ry

     iteration # 30     ecut=    10.00 Ry     beta= 0.30
     CG style diagonalization
     ethr =  8.07E-09,  avg # of iterations =  3.0

     negative rho (up, down):  1.456E-01 0.000E+00

     total cpu time spent up to now is      446.2 secs

     total energy              =    -111.16559871 Ry
     Harris-Foulkes estimate   =    -111.16559918 Ry
     estimated scf accuracy    <       0.00000006 Ry

     iteration # 31     ecut=    10.00 Ry     beta= 0.30
     CG style diagonalization
     ethr =  5.14E-10,  avg # of iterations =  3.0

     negative rho (up, down):  1.456E-01 0.000E+00

     total cpu time spent up to now is      457.7 secs

     total energy              =    -111.16559883 Ry
     Harris-Foulkes estimate   =    -111.16559872 Ry
     estimated scf accuracy    <          1.3E-09 Ry

     iteration # 32     ecut=    10.00 Ry     beta= 0.30
     CG style diagonalization
     ethr =  1.12E-11,  avg # of iterations =  3.1

     negative rho (up, down):  1.456E-01 0.000E+00

     total cpu time spent up to now is      469.2 secs

     total energy              =    -111.16559880 Ry
     Harris-Foulkes estimate   =    -111.16559883 Ry
     estimated scf accuracy    <          3.7E-10 Ry

     iteration # 33     ecut=    10.00 Ry     beta= 0.30
     CG style diagonalization
     ethr =  3.06E-12,  avg # of iterations =  3.0

     negative rho (up, down):  1.456E-01 0.000E+00

     total cpu time spent up to now is      480.8 secs

     total energy              =    -111.16559878 Ry
     Harris-Foulkes estimate   =    -111.16559880 Ry
     estimated scf accuracy    <          2.2E-11 Ry

     iteration # 34     ecut=    10.00 Ry     beta= 0.30
     CG style diagonalization
     ethr =  1.81E-13,  avg # of iterations =  3.2

     negative rho (up, down):  1.456E-01 0.000E+00

     total cpu time spent up to now is      492.8 secs

     total energy              =    -111.16559877 Ry
     Harris-Foulkes estimate   =    -111.16559878 Ry
     estimated scf accuracy    <          3.7E-11 Ry

     iteration # 35     ecut=    10.00 Ry     beta= 0.30
     CG style diagonalization
     ethr =  1.81E-13,  avg # of iterations =  3.1

     negative rho (up, down):  1.456E-01 0.000E+00

     total cpu time spent up to now is      504.7 secs

     total energy              =    -111.16559877 Ry
     Harris-Foulkes estimate   =    -111.16559877 Ry
     estimated scf accuracy    <          2.2E-11 Ry

     iteration # 36     ecut=    10.00 Ry     beta= 0.30
     CG style diagonalization
     ethr =  1.81E-13,  avg # of iterations =  3.0

     negative rho (up, down):  1.456E-01 0.000E+00

     total cpu time spent up to now is      516.3 secs

     total energy              =    -111.16559877 Ry
     Harris-Foulkes estimate   =    -111.16559877 Ry
     estimated scf accuracy    <          1.1E-12 Ry

     iteration # 37     ecut=    10.00 Ry     beta= 0.30
     CG style diagonalization
     ethr =  1.00E-13,  avg # of iterations =  3.0

     negative rho (up, down):  1.456E-01 0.000E+00

     total cpu time spent up to now is      527.9 secs

     End of self-consistent calculation

     Number of k-points >= 100: set verbosity='high' to print the bands.

     the Fermi energy is    -3.7061 ev

!    total energy              =    -111.16559877 Ry
     Harris-Foulkes estimate   =    -111.16559877 Ry
     estimated scf accuracy    <          3.9E-13 Ry

     The total energy is the sum of the following terms:

     one-electron contribution =    -516.43461903 Ry
     hartree contribution      =     250.25685622 Ry
     xc contribution           =     -12.66512725 Ry
     ewald contribution        =     167.68071780 Ry
     smearing contrib. (-TS)   =      -0.00342652 Ry

     convergence has been achieved in  37 iterations

     Writing output data file /home/edmondium/Documents/qe-6.7/tempdir/pwscf.save/

     init_run     :      3.18s CPU      3.29s WALL (       1 calls)
     electrons    :    485.20s CPU    524.12s WALL (       1 calls)

     Called by init_run:
     wfcinit      :      3.01s CPU      3.11s WALL (       1 calls)
     potinit      :      0.02s CPU      0.02s WALL (       1 calls)
     hinit0       :      0.12s CPU      0.12s WALL (       1 calls)

     Called by electrons:
     c_bands      :    438.24s CPU    473.94s WALL (      37 calls)
     sum_band     :     46.07s CPU     49.26s WALL (      37 calls)
     v_of_rho     :      0.27s CPU      0.28s WALL (      38 calls)
     newd         :      0.54s CPU      0.54s WALL (      38 calls)
     mix_rho      :      0.09s CPU      0.09s WALL (      37 calls)

     Called by c_bands:
     init_us_2    :      4.67s CPU      5.02s WALL (   20250 calls)
     ccgdiagg     :    324.09s CPU    350.34s WALL (    9990 calls)
     wfcrot       :    113.01s CPU    122.23s WALL (    9990 calls)

     Called by sum_band:
     sum_band:bec :      0.28s CPU      0.30s WALL (    9990 calls)
     addusdens    :      0.56s CPU      0.60s WALL (      37 calls)

     Called by *cgdiagg:
     h_psi        :    288.96s CPU    312.96s WALL (  625494 calls)
     s_psi        :     35.62s CPU     38.77s WALL ( 1240998 calls)
     cdiaghg      :      5.28s CPU      5.60s WALL (    9990 calls)

     Called by h_psi:
     h_psi:calbec :     29.00s CPU     31.38s WALL (  625494 calls)
     vloc_psi     :    236.99s CPU    256.72s WALL (  625494 calls)
     add_vuspsi   :     18.95s CPU     20.66s WALL (  625494 calls)
     hs_1psi      :    230.44s CPU    248.83s WALL (  615504 calls)
     s_1psi       :     38.75s CPU     41.65s WALL (  615504 calls)

     General routines
     calbec       :     51.82s CPU     56.53s WALL ( 1250988 calls)
     fft          :      0.09s CPU      0.09s WALL (     417 calls)
     ffts         :      0.01s CPU      0.01s WALL (      37 calls)
     fftw         :    227.93s CPU    246.62s WALL ( 1980258 calls)

     Parallel routines
     fft_scatt_xy :     39.68s CPU     42.83s WALL ( 1980712 calls)
     fft_scatt_yz :     58.11s CPU     63.34s WALL ( 1980712 calls)

     PWSCF        :   8m 8.99s CPU   8m48.25s WALL


   This run was terminated on:  21:46:30  13Jan2021            

=------------------------------------------------------------------------------=
   JOB DONE.
=------------------------------------------------------------------------------=
