
     Program PWSCF v.6.5 starts on 28Jan2021 at 12:23:36 

     This program is part of the open-source Quantum ESPRESSO suite
     for quantum simulation of materials; please cite
         "P. Giannozzi et al., J. Phys.:Condens. Matter 21 395502 (2009);
         "P. Giannozzi et al., J. Phys.:Condens. Matter 29 465901 (2017);
          URL http://www.quantum-espresso.org", 
     in publications or presentations arising from this work. More details at
     http://www.quantum-espresso.org/quote

     Parallel version (MPI), running on     4 processors

     MPI processes distributed on     1 nodes
     R & G space division:  proc/nbgrp/npool/nimage =       4
     Waiting for input...
     Reading input from standard input

     Current dimensions of program PWSCF are:
     Max number of different atomic species (ntypx) = 10
     Max number of k-points (npk) =  40000
     Max angular momentum in pseudopotentials (lmaxx) =  3

     Subspace diagonalization in iterative solution of the eigenvalue problem:
     a serial algorithm will be used


     Parallelization info
     --------------------
     sticks:   dense  smooth     PW     G-vecs:    dense   smooth      PW
     Min          21      21      7                 1421     1421     307
     Max          22      22      8                 1454     1454     334
     Sum          85      85     31                 5727     5727    1291



     bravais-lattice index     =            4
     lattice parameter (alat)  =       5.5762  a.u.
     unit-cell volume          =    1329.5399 (a.u.)^3
     number of atoms/cell      =            1
     number of atomic types    =            1
     number of electrons       =        12.00
     number of Kohn-Sham states=           25
     kinetic-energy cutoff     =      10.0000  Ry
     charge density cutoff     =      40.0000  Ry
     convergence threshold     =      1.0E-12
     mixing beta               =       0.3000
     number of iterations used =            8  plain     mixing
     Exchange-correlation= SLA PW PBE PBE
                           (   1   4   3   4   0   0   0)

     celldm(1)=   5.576204  celldm(2)=   0.000000  celldm(3)=   8.854312
     celldm(4)=   0.000000  celldm(5)=   0.000000  celldm(6)=   0.000000

     crystal axes: (cart. coord. in units of alat)
               a(1) = (   1.000000   0.000000   0.000000 )  
               a(2) = (  -0.500000   0.866025   0.000000 )  
               a(3) = (   0.000000   0.000000   8.854312 )  

     reciprocal axes: (cart. coord. in units 2 pi/alat)
               b(1) = (  1.000000  0.577350 -0.000000 )  
               b(2) = (  0.000000  1.154701  0.000000 )  
               b(3) = (  0.000000 -0.000000  0.112939 )  


     PseudoPot. # 1 for Ti read from file:
     /home/edmondium/quantum/pseudo/Ti.pbe-sp-van_ak.UPF
     MD5 check sum: f98fea3e8887528921fefa5636a534ca
     Pseudo is Ultrasoft, Zval = 12.0
     Generated by new atomic code, or converted to UPF format
     Using radial grid of  851 points,  6 beta functions with: 
                l(1) =   0
                l(2) =   0
                l(3) =   1
                l(4) =   1
                l(5) =   2
                l(6) =   2
     Q(r) pseudized with  8 coefficients,  rinner =    1.000   1.000   1.000
                                                       1.000   1.000

     atomic species   valence    mass     pseudopotential
        Ti            12.00    47.86700     Ti( 1.00)

     24 Sym. Ops., with inversion, found



   Cartesian axes

     site n.     atom                  positions (alat units)
         1           Ti  tau(   1) = (   0.0000000   0.0000000   0.0000000  )

     number of k points=   270  Marzari-Vanderbilt smearing, width (Ry)=  0.0200

     Number of k-points >= 100: set verbosity='high' to print them.

     Dense  grid:     5727 G-vectors     FFT dimensions: (  12,  12, 100)

     Estimated max dynamical RAM per process >      23.80 MB

     Estimated total dynamical RAM >      95.20 MB

     Initial potential from superposition of free atoms

     starting charge   10.99996, renormalised to   12.00000

     negative rho (up, down):  6.435E-01 0.000E+00
     Starting wfcs are random

     total cpu time spent up to now is        1.2 secs

     Self-consistent Calculation

     iteration #  1     ecut=    10.00 Ry     beta= 0.30
     CG style diagonalization
     ethr =  1.00E-02,  avg # of iterations =  9.2

     negative rho (up, down):  2.279E-01 0.000E+00

     total cpu time spent up to now is       12.5 secs

     total energy              =    -107.89385700 Ry
     Harris-Foulkes estimate   =    -113.93061576 Ry
     estimated scf accuracy    <      12.24166720 Ry

     iteration #  2     ecut=    10.00 Ry     beta= 0.30
     CG style diagonalization
     ethr =  1.00E-02,  avg # of iterations =  7.2

     negative rho (up, down):  1.975E-01 0.000E+00

     total cpu time spent up to now is       21.1 secs

     total energy              =    -111.68753531 Ry
     Harris-Foulkes estimate   =    -112.44734499 Ry
     estimated scf accuracy    <       2.25597230 Ry

     iteration #  3     ecut=    10.00 Ry     beta= 0.30
     CG style diagonalization
     ethr =  1.00E-02,  avg # of iterations =  3.0

     negative rho (up, down):  1.527E-01 0.000E+00

     total cpu time spent up to now is       24.6 secs

     total energy              =    -110.99504484 Ry
     Harris-Foulkes estimate   =    -111.76674893 Ry
     estimated scf accuracy    <       1.08728585 Ry

     iteration #  4     ecut=    10.00 Ry     beta= 0.30
     CG style diagonalization
     ethr =  9.06E-03,  avg # of iterations =  4.1

     negative rho (up, down):  1.531E-01 0.000E+00

     total cpu time spent up to now is       29.4 secs

     total energy              =    -111.24693778 Ry
     Harris-Foulkes estimate   =    -111.24416066 Ry
     estimated scf accuracy    <       0.39209839 Ry

     iteration #  5     ecut=    10.00 Ry     beta= 0.30
     CG style diagonalization
     ethr =  3.27E-03,  avg # of iterations =  3.2

     negative rho (up, down):  1.314E-01 0.000E+00

     total cpu time spent up to now is       33.1 secs

     total energy              =    -111.26421445 Ry
     Harris-Foulkes estimate   =    -111.25004650 Ry
     estimated scf accuracy    <       0.37441337 Ry

     iteration #  6     ecut=    10.00 Ry     beta= 0.30
     CG style diagonalization
     ethr =  3.12E-03,  avg # of iterations =  3.1

     negative rho (up, down):  9.774E-02 0.000E+00

     total cpu time spent up to now is       36.6 secs

     total energy              =    -111.24973302 Ry
     Harris-Foulkes estimate   =    -111.27484623 Ry
     estimated scf accuracy    <       0.46996181 Ry

     iteration #  7     ecut=    10.00 Ry     beta= 0.30
     CG style diagonalization
     ethr =  3.12E-03,  avg # of iterations =  3.0

     negative rho (up, down):  9.710E-02 0.000E+00

     total cpu time spent up to now is       40.0 secs

     total energy              =    -111.31055188 Ry
     Harris-Foulkes estimate   =    -111.30972928 Ry
     estimated scf accuracy    <       0.37024110 Ry

     iteration #  8     ecut=    10.00 Ry     beta= 0.30
     CG style diagonalization
     ethr =  3.09E-03,  avg # of iterations =  3.0

     negative rho (up, down):  1.675E-01 0.000E+00

     total cpu time spent up to now is       43.4 secs

     total energy              =    -111.05050457 Ry
     Harris-Foulkes estimate   =    -111.31146920 Ry
     estimated scf accuracy    <       0.38307083 Ry

     iteration #  9     ecut=    10.00 Ry     beta= 0.30
     CG style diagonalization
     ethr =  3.09E-03,  avg # of iterations =  3.2

     negative rho (up, down):  1.197E-01 0.000E+00

     total cpu time spent up to now is       47.1 secs

     total energy              =    -111.15185651 Ry
     Harris-Foulkes estimate   =    -111.30044374 Ry
     estimated scf accuracy    <       0.39542587 Ry

     iteration # 10     ecut=    10.00 Ry     beta= 0.30
     CG style diagonalization
     ethr =  3.09E-03,  avg # of iterations =  3.1

     negative rho (up, down):  1.082E-01 0.000E+00

     total cpu time spent up to now is       50.6 secs

     total energy              =    -111.26175024 Ry
     Harris-Foulkes estimate   =    -111.19915261 Ry
     estimated scf accuracy    <       0.12795091 Ry

     iteration # 11     ecut=    10.00 Ry     beta= 0.30
     CG style diagonalization
     ethr =  1.07E-03,  avg # of iterations =  3.1

     negative rho (up, down):  1.292E-01 0.000E+00

     total cpu time spent up to now is       54.2 secs

     total energy              =    -111.15095614 Ry
     Harris-Foulkes estimate   =    -111.27419798 Ry
     estimated scf accuracy    <       0.32566353 Ry

     iteration # 12     ecut=    10.00 Ry     beta= 0.30
     CG style diagonalization
     ethr =  1.07E-03,  avg # of iterations =  3.2

     negative rho (up, down):  1.036E-01 0.000E+00

     total cpu time spent up to now is       57.9 secs

     total energy              =    -111.24981086 Ry
     Harris-Foulkes estimate   =    -111.17238136 Ry
     estimated scf accuracy    <       0.04672622 Ry

     iteration # 13     ecut=    10.00 Ry     beta= 0.30
     CG style diagonalization
     ethr =  3.89E-04,  avg # of iterations =  3.4

     negative rho (up, down):  1.173E-01 0.000E+00

     total cpu time spent up to now is       61.9 secs

     total energy              =    -111.29497873 Ry
     Harris-Foulkes estimate   =    -111.28126055 Ry
     estimated scf accuracy    <       0.31690704 Ry

     iteration # 14     ecut=    10.00 Ry     beta= 0.30
     CG style diagonalization
     ethr =  3.89E-04,  avg # of iterations =  3.5

     negative rho (up, down):  1.280E-01 0.000E+00

     total cpu time spent up to now is       65.9 secs

     total energy              =    -111.21293720 Ry
     Harris-Foulkes estimate   =    -111.29923744 Ry
     estimated scf accuracy    <       0.33203321 Ry

     iteration # 15     ecut=    10.00 Ry     beta= 0.30
     CG style diagonalization
     ethr =  3.89E-04,  avg # of iterations =  3.1

     negative rho (up, down):  1.754E-01 0.000E+00

     total cpu time spent up to now is       69.6 secs

     total energy              =    -111.10349918 Ry
     Harris-Foulkes estimate   =    -111.22043406 Ry
     estimated scf accuracy    <       0.15960829 Ry

     iteration # 16     ecut=    10.00 Ry     beta= 0.30
     CG style diagonalization
     c_bands:  1 eigenvalues not converged
     ethr =  3.89E-04,  avg # of iterations =  4.3

     negative rho (up, down):  1.423E-01 0.000E+00

     total cpu time spent up to now is       74.8 secs

     total energy              =    -111.12834646 Ry
     Harris-Foulkes estimate   =    -111.22553160 Ry
     estimated scf accuracy    <       0.29184738 Ry

     iteration # 17     ecut=    10.00 Ry     beta= 0.30
     CG style diagonalization
     ethr =  3.89E-04,  avg # of iterations =  3.6

     negative rho (up, down):  1.409E-01 0.000E+00

     total cpu time spent up to now is       79.0 secs

     total energy              =    -111.16649943 Ry
     Harris-Foulkes estimate   =    -111.16827589 Ry
     estimated scf accuracy    <       0.01288731 Ry

     iteration # 18     ecut=    10.00 Ry     beta= 0.30
     CG style diagonalization
     ethr =  1.07E-04,  avg # of iterations =  3.1

     negative rho (up, down):  1.411E-01 0.000E+00

     total cpu time spent up to now is       82.6 secs

     total energy              =    -111.16509129 Ry
     Harris-Foulkes estimate   =    -111.16722579 Ry
     estimated scf accuracy    <       0.00502676 Ry

     iteration # 19     ecut=    10.00 Ry     beta= 0.30
     CG style diagonalization
     ethr =  4.19E-05,  avg # of iterations =  3.2

     negative rho (up, down):  1.431E-01 0.000E+00

     total cpu time spent up to now is       86.3 secs

     total energy              =    -111.16463504 Ry
     Harris-Foulkes estimate   =    -111.16683062 Ry
     estimated scf accuracy    <       0.00629529 Ry

     iteration # 20     ecut=    10.00 Ry     beta= 0.30
     CG style diagonalization
     ethr =  4.19E-05,  avg # of iterations =  3.0

     negative rho (up, down):  1.434E-01 0.000E+00

     total cpu time spent up to now is       89.8 secs

     total energy              =    -111.16563428 Ry
     Harris-Foulkes estimate   =    -111.16564357 Ry
     estimated scf accuracy    <       0.00010421 Ry

     iteration # 21     ecut=    10.00 Ry     beta= 0.30
     CG style diagonalization
     c_bands:  1 eigenvalues not converged
     c_bands:  1 eigenvalues not converged
     c_bands:  1 eigenvalues not converged
     c_bands:  1 eigenvalues not converged
     c_bands:  1 eigenvalues not converged
     c_bands:  1 eigenvalues not converged
     c_bands:  1 eigenvalues not converged
     c_bands:  1 eigenvalues not converged
     c_bands:  1 eigenvalues not converged
     c_bands:  1 eigenvalues not converged
     c_bands:  1 eigenvalues not converged
     c_bands:  1 eigenvalues not converged
     c_bands:  1 eigenvalues not converged
     c_bands:  1 eigenvalues not converged
     c_bands:  1 eigenvalues not converged
     c_bands:  1 eigenvalues not converged
     c_bands:  1 eigenvalues not converged
     c_bands:  1 eigenvalues not converged
     c_bands:  1 eigenvalues not converged
     ethr =  8.68E-07,  avg # of iterations =  3.7

     negative rho (up, down):  1.443E-01 0.000E+00

     total cpu time spent up to now is       94.1 secs

     total energy              =    -111.16560350 Ry
     Harris-Foulkes estimate   =    -111.16563674 Ry
     estimated scf accuracy    <       0.00008307 Ry

     iteration # 22     ecut=    10.00 Ry     beta= 0.30
     CG style diagonalization
     ethr =  6.92E-07,  avg # of iterations =  3.0

     negative rho (up, down):  1.448E-01 0.000E+00

     total cpu time spent up to now is       97.5 secs

     total energy              =    -111.16560240 Ry
     Harris-Foulkes estimate   =    -111.16561298 Ry
     estimated scf accuracy    <       0.00003424 Ry

     iteration # 23     ecut=    10.00 Ry     beta= 0.30
     CG style diagonalization
     ethr =  2.85E-07,  avg # of iterations =  3.0

     negative rho (up, down):  1.470E-01 0.000E+00

     total cpu time spent up to now is      100.9 secs

     total energy              =    -111.16561871 Ry
     Harris-Foulkes estimate   =    -111.16560355 Ry
     estimated scf accuracy    <       0.00000987 Ry

     iteration # 24     ecut=    10.00 Ry     beta= 0.30
     CG style diagonalization
     c_bands:  1 eigenvalues not converged
     c_bands:  1 eigenvalues not converged
     c_bands:  1 eigenvalues not converged
     ethr =  8.23E-08,  avg # of iterations =  3.7

     negative rho (up, down):  1.456E-01 0.000E+00

     total cpu time spent up to now is      105.2 secs

     total energy              =    -111.16559638 Ry
     Harris-Foulkes estimate   =    -111.16562579 Ry
     estimated scf accuracy    <       0.00003976 Ry

     iteration # 25     ecut=    10.00 Ry     beta= 0.30
     CG style diagonalization
     ethr =  8.23E-08,  avg # of iterations =  3.3

     negative rho (up, down):  1.456E-01 0.000E+00

     total cpu time spent up to now is      109.0 secs

     total energy              =    -111.16559773 Ry
     Harris-Foulkes estimate   =    -111.16559965 Ry
     estimated scf accuracy    <       0.00000023 Ry

     iteration # 26     ecut=    10.00 Ry     beta= 0.30
     CG style diagonalization
     ethr =  1.94E-09,  avg # of iterations =  3.3

     negative rho (up, down):  1.456E-01 0.000E+00

     total cpu time spent up to now is      112.7 secs

     total energy              =    -111.16559893 Ry
     Harris-Foulkes estimate   =    -111.16559800 Ry
     estimated scf accuracy    <       0.00000058 Ry

     iteration # 27     ecut=    10.00 Ry     beta= 0.30
     CG style diagonalization
     ethr =  1.94E-09,  avg # of iterations =  3.2

     negative rho (up, down):  1.456E-01 0.000E+00

     total cpu time spent up to now is      116.3 secs

     total energy              =    -111.16559900 Ry
     Harris-Foulkes estimate   =    -111.16559903 Ry
     estimated scf accuracy    <       0.00000003 Ry

     iteration # 28     ecut=    10.00 Ry     beta= 0.30
     CG style diagonalization
     ethr =  2.67E-10,  avg # of iterations =  3.0

     negative rho (up, down):  1.456E-01 0.000E+00

     total cpu time spent up to now is      119.8 secs

     total energy              =    -111.16559883 Ry
     Harris-Foulkes estimate   =    -111.16559900 Ry
     estimated scf accuracy    <       0.00000002 Ry

     iteration # 29     ecut=    10.00 Ry     beta= 0.30
     CG style diagonalization
     ethr =  1.41E-10,  avg # of iterations =  3.0

     negative rho (up, down):  1.456E-01 0.000E+00

     total cpu time spent up to now is      123.2 secs

     total energy              =    -111.16559870 Ry
     Harris-Foulkes estimate   =    -111.16559883 Ry
     estimated scf accuracy    <          1.1E-09 Ry

     iteration # 30     ecut=    10.00 Ry     beta= 0.30
     CG style diagonalization
     ethr =  9.41E-12,  avg # of iterations =  3.2

     negative rho (up, down):  1.456E-01 0.000E+00

     total cpu time spent up to now is      126.9 secs

     total energy              =    -111.16559874 Ry
     Harris-Foulkes estimate   =    -111.16559870 Ry
     estimated scf accuracy    <          2.1E-09 Ry

     iteration # 31     ecut=    10.00 Ry     beta= 0.30
     CG style diagonalization
     ethr =  9.41E-12,  avg # of iterations =  3.0

     negative rho (up, down):  1.456E-01 0.000E+00

     total cpu time spent up to now is      130.4 secs

     total energy              =    -111.16559876 Ry
     Harris-Foulkes estimate   =    -111.16559874 Ry
     estimated scf accuracy    <          1.1E-10 Ry

     iteration # 32     ecut=    10.00 Ry     beta= 0.30
     CG style diagonalization
     ethr =  8.97E-13,  avg # of iterations =  3.0

     negative rho (up, down):  1.456E-01 0.000E+00

     total cpu time spent up to now is      133.8 secs

     total energy              =    -111.16559877 Ry
     Harris-Foulkes estimate   =    -111.16559876 Ry
     estimated scf accuracy    <          1.8E-11 Ry

     iteration # 33     ecut=    10.00 Ry     beta= 0.30
     CG style diagonalization
     ethr =  1.49E-13,  avg # of iterations =  3.0

     negative rho (up, down):  1.456E-01 0.000E+00

     total cpu time spent up to now is      137.3 secs

     End of self-consistent calculation

     Number of k-points >= 100: set verbosity='high' to print the bands.

     the Fermi energy is    -3.7061 ev

!    total energy              =    -111.16559877 Ry
     Harris-Foulkes estimate   =    -111.16559877 Ry
     estimated scf accuracy    <          7.2E-13 Ry

     The total energy is the sum of the following terms:

     one-electron contribution =    -516.43461410 Ry
     hartree contribution      =     250.25685080 Ry
     xc contribution           =     -12.66512675 Ry
     ewald contribution        =     167.68071780 Ry
     smearing contrib. (-TS)   =      -0.00342652 Ry

     convergence has been achieved in  33 iterations

     Writing output data file /home/edmondium/quantum/tempdir/pwscf.save/

     init_run     :      0.84s CPU      0.92s WALL (       1 calls)
     electrons    :    124.02s CPU    136.13s WALL (       1 calls)

     Called by init_run:
     wfcinit      :      0.80s CPU      0.87s WALL (       1 calls)
     potinit      :      0.00s CPU      0.00s WALL (       1 calls)
     hinit0       :      0.03s CPU      0.03s WALL (       1 calls)

     Called by electrons:
     c_bands      :    112.85s CPU    124.20s WALL (      33 calls)
     sum_band     :     10.89s CPU     11.66s WALL (      33 calls)
     v_of_rho     :      0.06s CPU      0.06s WALL (      34 calls)
     newd         :      0.19s CPU      0.19s WALL (      34 calls)
     mix_rho      :      0.02s CPU      0.02s WALL (      33 calls)

     Called by c_bands:
     init_us_2    :      0.91s CPU      1.00s WALL (   18090 calls)
     ccgdiagg     :     90.03s CPU     99.03s WALL (    8910 calls)
     wfcrot       :     22.40s CPU     24.69s WALL (    8910 calls)

     Called by sum_band:
     sum_band:bec :      0.06s CPU      0.06s WALL (    8910 calls)
     addusdens    :      0.23s CPU      0.24s WALL (      33 calls)

     Called by *cgdiagg:
     h_psi        :     77.00s CPU     84.74s WALL (  584876 calls)
     s_psi        :      4.14s CPU      4.69s WALL ( 1160842 calls)
     cdiaghg      :      2.10s CPU      2.31s WALL (    8910 calls)

     Called by h_psi:
     h_psi:calbec :      6.19s CPU      6.82s WALL (  584876 calls)
     vloc_psi     :     63.18s CPU     69.53s WALL (  584876 calls)
     add_vuspsi   :      5.56s CPU      6.18s WALL (  584876 calls)
     hs_1psi      :     63.73s CPU     70.01s WALL (  575966 calls)
     s_1psi       :      7.92s CPU      8.65s WALL (  575966 calls)

     General routines
     calbec       :      9.31s CPU     10.37s WALL ( 1169752 calls)
     fft          :      0.03s CPU      0.03s WALL (     373 calls)
     ffts         :      0.00s CPU      0.00s WALL (      33 calls)
     fftw         :     61.74s CPU     67.70s WALL ( 1820182 calls)

     Parallel routines
     fft_scatt_xy :     10.04s CPU     11.02s WALL ( 1820588 calls)
     fft_scatt_yz :     25.84s CPU     28.32s WALL ( 1820588 calls)

     PWSCF        :   2m 5.27s CPU   2m17.51s WALL


   This run was terminated on:  12:25:54  28Jan2021            

=------------------------------------------------------------------------------=
   JOB DONE.
=------------------------------------------------------------------------------=
