
     Program PWSCF v.6.5 starts on 28Jan2021 at 12:29:48 

     This program is part of the open-source Quantum ESPRESSO suite
     for quantum simulation of materials; please cite
         "P. Giannozzi et al., J. Phys.:Condens. Matter 21 395502 (2009);
         "P. Giannozzi et al., J. Phys.:Condens. Matter 29 465901 (2017);
          URL http://www.quantum-espresso.org", 
     in publications or presentations arising from this work. More details at
     http://www.quantum-espresso.org/quote

     Parallel version (MPI), running on     4 processors

     MPI processes distributed on     1 nodes
     R & G space division:  proc/nbgrp/npool/nimage =       4
     Waiting for input...
     Reading input from standard input

     Current dimensions of program PWSCF are:
     Max number of different atomic species (ntypx) = 10
     Max number of k-points (npk) =  40000
     Max angular momentum in pseudopotentials (lmaxx) =  3

     Atomic positions and unit cell read from directory:
     /home/edmondium/quantum/tempdir/pwscf.save/                                                                                                                                                                                                                     


     Subspace diagonalization in iterative solution of the eigenvalue problem:
     a serial algorithm will be used


     Parallelization info
     --------------------
     sticks:   dense  smooth     PW     G-vecs:    dense   smooth      PW
     Min          54      54     29                  522      522     191
     Max          55      55     30                  524      524     192
     Sum         219     219    117                 2093     2093     767



     bravais-lattice index     =            3
     lattice parameter (alat)  =       5.7259  a.u.
     unit-cell volume          =      93.8630 (a.u.)^3
     number of atoms/cell      =            1
     number of atomic types    =            1
     number of electrons       =        13.00
     number of Kohn-Sham states=           28
     kinetic-energy cutoff     =      30.0000  Ry
     charge density cutoff     =     120.0000  Ry
     Exchange-correlation= SLA PW PBE PBE
                           (   1   4   3   4   0   0   0)

     celldm(1)=   5.725870  celldm(2)=   0.000000  celldm(3)=   0.000000
     celldm(4)=   0.000000  celldm(5)=   0.000000  celldm(6)=   0.000000

     crystal axes: (cart. coord. in units of alat)
               a(1) = (   0.500000   0.500000   0.500000 )  
               a(2) = (  -0.500000   0.500000   0.500000 )  
               a(3) = (  -0.500000  -0.500000   0.500000 )  

     reciprocal axes: (cart. coord. in units 2 pi/alat)
               b(1) = (  1.000000  0.000000  1.000000 )  
               b(2) = ( -1.000000  1.000000  0.000000 )  
               b(3) = (  0.000000 -1.000000  1.000000 )  


     PseudoPot. # 1 for V  read from file:
     /home/edmondium/quantum/pseudo/V.pbe-sp-van.UPF
     MD5 check sum: 34a7e343955c81272bbaba64c83307c0
     Pseudo is Ultrasoft, Zval = 13.0
     Generated by new atomic code, or converted to UPF format
     Using radial grid of  853 points,  6 beta functions with: 
                l(1) =   0
                l(2) =   0
                l(3) =   1
                l(4) =   1
                l(5) =   2
                l(6) =   2
     Q(r) pseudized with  8 coefficients,  rinner =    1.200   1.200   1.200
                                                       1.200   1.200

     atomic species   valence    mass     pseudopotential
        V             13.00    50.94150     V ( 1.00)

     No symmetry found



   Cartesian axes

     site n.     atom                  positions (alat units)
         1           V   tau(   1) = (   0.0000000   0.0000000   0.0000000  )

     number of k points=   210

     Number of k-points >= 100: set verbosity='high' to print them.

     Dense  grid:     2093 G-vectors     FFT dimensions: (  18,  18,  18)

     Estimated max dynamical RAM per process >       2.52 MB

     Estimated total dynamical RAM >      10.09 MB

     The potential is recalculated from file :
     /home/edmondium/quantum/tempdir/pwscf.save/charge-density

     Starting wfcs are random

     Band Structure Calculation
     CG style diagonalization

     ethr =  7.69E-13,  avg # of iterations = 43.4

     total cpu time spent up to now is       34.8 secs

     End of band structure calculation

     Number of k-points >= 100: set verbosity='high' to print the bands.

     highest occupied, lowest unoccupied level (ev):    16.3263   14.8308



               ==================================================
                            POLARIZATION CALCULATION
                         !!! NOT THOROUGHLY TESTED !!!
               --------------------------------------------------


                     K-POINTS STRINGS USED IN CALCULATIONS
                     ~~~~~~~~~~~~~~~~~~~~~~~~~~~~~~~~~~~~~

       G-vector along string (2 pi/a):  0.00000 -1.00000  1.00000
       Modulus of the vector (1/bohr):  1.55186
       Number of k-points per string:   7
       Number of different strings  :  30


                               IONIC POLARIZATION
                               ~~~~~~~~~~~~~~~~~~

  ============================================================================
    Ion    Species    Charge              Position                Phase
  ----------------------------------------------------------------------------
     1        V       13.000       0.0000  0.0000  0.0000     0.00000 (mod 1)
  ----------------------------------------------------------------------------
                                               IONIC PHASE:   0.00000 (mod 1)
  ============================================================================


                            ELECTRONIC POLARIZATION
                            ~~~~~~~~~~~~~~~~~~~~~~~

  ============================================================================
    String     Weight      First k-point in string         Phase
  ----------------------------------------------------------------------------
       1      0.003906      0.0000  0.0000  0.0000    -0.00000
       2      0.023437     -0.0625  0.0625  0.0000    -0.00000
       3      0.023437     -0.1250  0.1250  0.0000    -0.00000
       4      0.023437     -0.1875  0.1875  0.0000     0.00000
       5      0.023437     -0.2500  0.2500  0.0000     0.00000
       6      0.023437     -0.3125  0.3125  0.0000     1.00000
       7      0.023437     -0.3750  0.3750  0.0000     0.00000
       8      0.023437     -0.4375  0.4375  0.0000    -0.00000
       9      0.011719      0.5000 -0.5000  0.0000    -0.00000
      10      0.023437     -0.0625  0.1250  0.0625     0.99997
      11      0.046875     -0.1250  0.1875  0.0625    -0.00000
      12      0.046875     -0.1875  0.2500  0.0625    -0.00001
      13      0.046875     -0.2500  0.3125  0.0625    -0.99999
      14      0.046875     -0.3125  0.3750  0.0625     0.00000
      15      0.046875     -0.3750  0.4375  0.0625     0.00000
      16      0.046875      0.5625 -0.5000  0.0625    -0.00000
      17      0.023437     -0.1250  0.2500  0.1250    -1.00000
      18      0.046875     -0.1875  0.3125  0.1250     1.00000
      19      0.046875     -0.2500  0.3750  0.1250     1.00000
      20      0.046875     -0.3125  0.4375  0.1250    -1.00000
      21      0.046875      0.6250 -0.5000  0.1250    -0.00000
      22      0.023437      0.5625 -0.4375  0.1250    -0.00000
      23      0.023437     -0.1875  0.3750  0.1875    -1.00000
      24      0.046875     -0.2500  0.4375  0.1875     1.00000
      25      0.046875      0.6875 -0.5000  0.1875    -1.00000
      26      0.046875      0.6250 -0.4375  0.1875     0.00000
      27      0.023437      0.7500 -0.5000  0.2500     0.00000
      28      0.046875      0.6875 -0.4375  0.2500     0.00000
      29      0.023437      0.6250 -0.3750  0.2500     0.00000
      30      0.023437      0.6875 -0.3750  0.3125     0.00000
  ----------------------------------------------------------------------------
                                          ELECTRONIC PHASE:  -0.00000
  ============================================================================


                               SUMMARY OF PHASES
                               ~~~~~~~~~~~~~~~~~

                          Ionic Phase:  0.00000
                     Electronic Phase: -0.00000
                          TOTAL PHASE: -0.00000 MOD_TOT: 1


                             VALUES OF POLARIZATION
                             ~~~~~~~~~~~~~~~~~~~~~~

        The calculation of phases done along the direction of vector 3
        of the reciprocal lattice gives the following contribution to
        the polarization vector (in different units, and being Omega
        the volume of the unit cell):

           P =  -0.0000024  (mod   4.9587489)  (e/Omega).bohr

           P =  -0.0000000  (mod   0.0528296)  e/bohr^2

           P =  -0.0000015  (mod   3.0203616)  C/m^2

        The polarization direction is:  (-0.57735 ,-0.57735 , 0.57735 )


               ==================================================



     Writing output data file /home/edmondium/quantum/tempdir/pwscf.save/

     init_run     :      0.05s CPU      0.05s WALL (       1 calls)
     electrons    :     30.53s CPU     34.36s WALL (       1 calls)

     Called by init_run:
     wfcinit      :      0.00s CPU      0.00s WALL (       1 calls)
     potinit      :      0.00s CPU      0.00s WALL (       1 calls)
     hinit0       :      0.04s CPU      0.04s WALL (       1 calls)

     Called by electrons:
     c_bands      :     30.49s CPU     34.32s WALL (       1 calls)
     v_of_rho     :      0.00s CPU      0.00s WALL (       1 calls)
     newd         :      0.00s CPU      0.00s WALL (       1 calls)

     Called by c_bands:
     init_us_2    :      0.01s CPU      0.01s WALL (     570 calls)
     ccgdiagg     :     29.03s CPU     32.64s WALL (     638 calls)
     wfcrot       :      1.42s CPU      1.63s WALL (     638 calls)

     Called by sum_band:

     Called by *cgdiagg:
     h_psi        :     20.07s CPU     22.60s WALL (  236923 calls)
     s_psi        :      1.16s CPU      1.35s WALL (  473208 calls)
     cdiaghg      :      0.18s CPU      0.21s WALL (     638 calls)

     Called by h_psi:
     h_psi:calbec :      1.89s CPU      2.12s WALL (  236923 calls)
     vloc_psi     :     16.36s CPU     18.43s WALL (  236923 calls)
     add_vuspsi   :      1.08s CPU      1.23s WALL (  236923 calls)
     hs_1psi      :     20.71s CPU     23.28s WALL (  236285 calls)
     s_1psi       :      2.55s CPU      2.86s WALL (  236285 calls)

     General routines
     calbec       :      2.57s CPU      2.94s WALL (  473568 calls)
     fft          :      0.00s CPU      0.00s WALL (      11 calls)
     fftw         :     14.83s CPU     16.69s WALL (  508298 calls)
     davcio       :      0.01s CPU      0.01s WALL (     780 calls)

     Parallel routines
     fft_scatt_xy :      1.41s CPU      1.58s WALL (  508309 calls)
     fft_scatt_yz :      5.33s CPU      5.95s WALL (  508309 calls)

     PWSCF        :     31.03s CPU     34.92s WALL


   This run was terminated on:  12:30:23  28Jan2021            

=------------------------------------------------------------------------------=
   JOB DONE.
=------------------------------------------------------------------------------=
