
     Program PWSCF v.6.5 starts on 12Jan2021 at 18:36: 2 

     This program is part of the open-source Quantum ESPRESSO suite
     for quantum simulation of materials; please cite
         "P. Giannozzi et al., J. Phys.:Condens. Matter 21 395502 (2009);
         "P. Giannozzi et al., J. Phys.:Condens. Matter 29 465901 (2017);
          URL http://www.quantum-espresso.org", 
     in publications or presentations arising from this work. More details at
     http://www.quantum-espresso.org/quote

     Parallel version (MPI), running on     2 processors

     MPI processes distributed on     1 nodes
     R & G space division:  proc/nbgrp/npool/nimage =       2
     Waiting for input...
     Reading input from standard input

     Current dimensions of program PWSCF are:
     Max number of different atomic species (ntypx) = 10
     Max number of k-points (npk) =  40000
     Max angular momentum in pseudopotentials (lmaxx) =  3

     Atomic positions and unit cell read from directory:
     /home/edmondium/Documents/qe-6.7/tempdir/pwscf.save/                                                                                                                                                                                                            


     Subspace diagonalization in iterative solution of the eigenvalue problem:
     a serial algorithm will be used


     Parallelization info
     --------------------
     sticks:   dense  smooth     PW     G-vecs:    dense   smooth      PW
     Min         109     109     58                 1046     1046     383
     Max         110     110     59                 1047     1047     384
     Sum         219     219    117                 2093     2093     767



     bravais-lattice index     =            3
     lattice parameter (alat)  =       5.7259  a.u.
     unit-cell volume          =      93.8630 (a.u.)^3
     number of atoms/cell      =            1
     number of atomic types    =            1
     number of electrons       =        13.00
     number of Kohn-Sham states=           28
     kinetic-energy cutoff     =      30.0000  Ry
     charge density cutoff     =     120.0000  Ry
     Exchange-correlation= SLA PW PBE PBE
                           (   1   4   3   4   0   0   0)

     celldm(1)=   5.725870  celldm(2)=   0.000000  celldm(3)=   0.000000
     celldm(4)=   0.000000  celldm(5)=   0.000000  celldm(6)=   0.000000

     crystal axes: (cart. coord. in units of alat)
               a(1) = (   0.500000   0.500000   0.500000 )  
               a(2) = (  -0.500000   0.500000   0.500000 )  
               a(3) = (  -0.500000  -0.500000   0.500000 )  

     reciprocal axes: (cart. coord. in units 2 pi/alat)
               b(1) = (  1.000000  0.000000  1.000000 )  
               b(2) = ( -1.000000  1.000000  0.000000 )  
               b(3) = (  0.000000 -1.000000  1.000000 )  


     PseudoPot. # 1 for V  read from file:
     /home/edmondium/Documents/qe-6.7/pseudo/V.pbe-sp-van.UPF
     MD5 check sum: 34a7e343955c81272bbaba64c83307c0
     Pseudo is Ultrasoft, Zval = 13.0
     Generated by new atomic code, or converted to UPF format
     Using radial grid of  853 points,  6 beta functions with: 
                l(1) =   0
                l(2) =   0
                l(3) =   1
                l(4) =   1
                l(5) =   2
                l(6) =   2
     Q(r) pseudized with  8 coefficients,  rinner =    1.200   1.200   1.200
                                                       1.200   1.200

     atomic species   valence    mass     pseudopotential
        V             13.00    50.94150     V ( 1.00)

     No symmetry found



   Cartesian axes

     site n.     atom                  positions (alat units)
         1           V   tau(   1) = (   0.0000000   0.0000000   0.0000000  )

     number of k points=   210

     Number of k-points >= 100: set verbosity='high' to print them.

     Dense  grid:     2093 G-vectors     FFT dimensions: (  18,  18,  18)

     Estimated max dynamical RAM per process >       4.22 MB

     Estimated total dynamical RAM >       8.45 MB

     The potential is recalculated from file :
     /home/edmondium/Documents/qe-6.7/tempdir/pwscf.save/charge-density

     Starting wfcs are random

     Band Structure Calculation
     CG style diagonalization

     ethr =  7.69E-13,  avg # of iterations = 43.3

     total cpu time spent up to now is       90.0 secs

     End of band structure calculation

     Number of k-points >= 100: set verbosity='high' to print the bands.

     highest occupied, lowest unoccupied level (ev):    16.3263   14.8308



               ==================================================
                            POLARIZATION CALCULATION
                         !!! NOT THOROUGHLY TESTED !!!
               --------------------------------------------------


                     K-POINTS STRINGS USED IN CALCULATIONS
                     ~~~~~~~~~~~~~~~~~~~~~~~~~~~~~~~~~~~~~

       G-vector along string (2 pi/a):  0.00000 -1.00000  1.00000
       Modulus of the vector (1/bohr):  1.55186
       Number of k-points per string:   7
       Number of different strings  :  30


                               IONIC POLARIZATION
                               ~~~~~~~~~~~~~~~~~~

  ============================================================================
    Ion    Species    Charge              Position                Phase
  ----------------------------------------------------------------------------
     1        V       13.000       0.0000  0.0000  0.0000     0.00000 (mod 1)
  ----------------------------------------------------------------------------
                                               IONIC PHASE:   0.00000 (mod 1)
  ============================================================================


                            ELECTRONIC POLARIZATION
                            ~~~~~~~~~~~~~~~~~~~~~~~

  ============================================================================
    String     Weight      First k-point in string         Phase
  ----------------------------------------------------------------------------
       1      0.003906      0.0000  0.0000  0.0000     0.00000
       2      0.023437     -0.0625  0.0625  0.0000     0.00000
       3      0.023437     -0.1250  0.1250  0.0000    -0.00000
       4      0.023437     -0.1875  0.1875  0.0000     0.00000
       5      0.023437     -0.2500  0.2500  0.0000     0.00000
       6      0.023437     -0.3125  0.3125  0.0000     1.00000
       7      0.023437     -0.3750  0.3750  0.0000    -0.00000
       8      0.023437     -0.4375  0.4375  0.0000    -0.00000
       9      0.011719      0.5000 -0.5000  0.0000     0.00000
      10      0.023437     -0.0625  0.1250  0.0625     1.00000
      11      0.046875     -0.1250  0.1875  0.0625    -0.00000
      12      0.046875     -0.1875  0.2500  0.0625     0.00000
      13      0.046875     -0.2500  0.3125  0.0625     1.00000
      14      0.046875     -0.3125  0.3750  0.0625     0.00000
      15      0.046875     -0.3750  0.4375  0.0625    -0.00000
      16      0.046875      0.5625 -0.5000  0.0625    -0.00000
      17      0.023437     -0.1250  0.2500  0.1250    -0.99999
      18      0.046875     -0.1875  0.3125  0.1250     0.99999
      19      0.046875     -0.2500  0.3750  0.1250     0.99991
      20      0.046875     -0.3125  0.4375  0.1250     1.00000
      21      0.046875      0.6250 -0.5000  0.1250    -0.00001
      22      0.023437      0.5625 -0.4375  0.1250     0.00000
      23      0.023437     -0.1875  0.3750  0.1875     1.00000
      24      0.046875     -0.2500  0.4375  0.1875     1.00000
      25      0.046875      0.6875 -0.5000  0.1875    -1.00000
      26      0.046875      0.6250 -0.4375  0.1875     0.00084
      27      0.023437      0.7500 -0.5000  0.2500    -0.00000
      28      0.046875      0.6875 -0.4375  0.2500     0.00000
      29      0.023437      0.6250 -0.3750  0.2500    -0.00000
      30      0.023437      0.6875 -0.3750  0.3125    -0.00000
  ----------------------------------------------------------------------------
                                          ELECTRONIC PHASE:   0.23441
  ============================================================================


                               SUMMARY OF PHASES
                               ~~~~~~~~~~~~~~~~~

                          Ionic Phase:  0.00000
                     Electronic Phase:  0.23441
                          TOTAL PHASE:  0.23441 MOD_TOT: 1


                             VALUES OF POLARIZATION
                             ~~~~~~~~~~~~~~~~~~~~~~

        The calculation of phases done along the direction of vector 3
        of the reciprocal lattice gives the following contribution to
        the polarization vector (in different units, and being Omega
        the volume of the unit cell):

           P =   1.1623760  (mod   4.9587489)  (e/Omega).bohr

           P =   0.0123838  (mod   0.0528296)  e/bohr^2

           P =   0.7080003  (mod   3.0203616)  C/m^2

        The polarization direction is:  (-0.57735 ,-0.57735 , 0.57735 )


               ==================================================



     Writing output data file /home/edmondium/Documents/qe-6.7/tempdir/pwscf.save/

     init_run     :      0.21s CPU      0.21s WALL (       1 calls)
     electrons    :     79.76s CPU     89.23s WALL (       1 calls)

     Called by init_run:
     wfcinit      :      0.00s CPU      0.00s WALL (       1 calls)
     potinit      :      0.00s CPU      0.00s WALL (       1 calls)
     hinit0       :      0.20s CPU      0.20s WALL (       1 calls)

     Called by electrons:
     c_bands      :     79.54s CPU     89.00s WALL (       1 calls)
     v_of_rho     :      0.00s CPU      0.00s WALL (       1 calls)
     newd         :      0.00s CPU      0.00s WALL (       1 calls)

     Called by c_bands:
     init_us_2    :      0.05s CPU      0.06s WALL (     570 calls)
     ccgdiagg     :     74.67s CPU     83.30s WALL (     636 calls)
     wfcrot       :      4.74s CPU      5.28s WALL (     636 calls)

     Called by sum_band:

     Called by *cgdiagg:
     h_psi        :     55.70s CPU     62.17s WALL (  236752 calls)
     s_psi        :      5.03s CPU      5.66s WALL (  472868 calls)
     cdiaghg      :      0.44s CPU      0.47s WALL (     636 calls)

     Called by h_psi:
     h_psi:calbec :      4.45s CPU      4.97s WALL (  236752 calls)
     vloc_psi     :     47.69s CPU     53.23s WALL (  236752 calls)
     add_vuspsi   :      2.51s CPU      2.82s WALL (  236752 calls)
     hs_1psi      :     56.33s CPU     62.77s WALL (  236116 calls)
     s_1psi       :      6.82s CPU      7.55s WALL (  236116 calls)

     General routines
     calbec       :      7.03s CPU      7.97s WALL (  473228 calls)
     fft          :      0.00s CPU      0.00s WALL (      11 calls)
     fftw         :     43.03s CPU     48.05s WALL (  507848 calls)
     davcio       :      0.04s CPU      0.31s WALL (     780 calls)

     Parallel routines
     fft_scatt_xy :      4.57s CPU      5.08s WALL (  507859 calls)
     fft_scatt_yz :      9.89s CPU     11.15s WALL (  507859 calls)

     PWSCF        :   1m20.85s CPU   1m30.39s WALL


   This run was terminated on:  18:37:32  12Jan2021            

=------------------------------------------------------------------------------=
   JOB DONE.
=------------------------------------------------------------------------------=
