
     Program PWSCF v.6.5 starts on 12Jan2021 at 18:34:57 

     This program is part of the open-source Quantum ESPRESSO suite
     for quantum simulation of materials; please cite
         "P. Giannozzi et al., J. Phys.:Condens. Matter 21 395502 (2009);
         "P. Giannozzi et al., J. Phys.:Condens. Matter 29 465901 (2017);
          URL http://www.quantum-espresso.org", 
     in publications or presentations arising from this work. More details at
     http://www.quantum-espresso.org/quote

     Parallel version (MPI), running on     2 processors

     MPI processes distributed on     1 nodes
     R & G space division:  proc/nbgrp/npool/nimage =       2
     Waiting for input...
     Reading input from standard input

     Current dimensions of program PWSCF are:
     Max number of different atomic species (ntypx) = 10
     Max number of k-points (npk) =  40000
     Max angular momentum in pseudopotentials (lmaxx) =  3

     Subspace diagonalization in iterative solution of the eigenvalue problem:
     a serial algorithm will be used


     Parallelization info
     --------------------
     sticks:   dense  smooth     PW     G-vecs:    dense   smooth      PW
     Min         109     109     38                 1046     1046     214
     Max         110     110     39                 1047     1047     215
     Sum         219     219     77                 2093     2093     429



     bravais-lattice index     =            3
     lattice parameter (alat)  =       5.7259  a.u.
     unit-cell volume          =      93.8630 (a.u.)^3
     number of atoms/cell      =            1
     number of atomic types    =            1
     number of electrons       =        13.00
     number of Kohn-Sham states=           25
     kinetic-energy cutoff     =      30.0000  Ry
     charge density cutoff     =     120.0000  Ry
     convergence threshold     =      1.0E-12
     mixing beta               =       0.3000
     number of iterations used =            8  plain     mixing
     Exchange-correlation= SLA PW PBE PBE
                           (   1   4   3   4   0   0   0)

     celldm(1)=   5.725870  celldm(2)=   0.000000  celldm(3)=   0.000000
     celldm(4)=   0.000000  celldm(5)=   0.000000  celldm(6)=   0.000000

     crystal axes: (cart. coord. in units of alat)
               a(1) = (   0.500000   0.500000   0.500000 )  
               a(2) = (  -0.500000   0.500000   0.500000 )  
               a(3) = (  -0.500000  -0.500000   0.500000 )  

     reciprocal axes: (cart. coord. in units 2 pi/alat)
               b(1) = (  1.000000  0.000000  1.000000 )  
               b(2) = ( -1.000000  1.000000  0.000000 )  
               b(3) = (  0.000000 -1.000000  1.000000 )  


     PseudoPot. # 1 for V  read from file:
     /home/edmondium/Documents/qe-6.7/pseudo/V.pbe-sp-van.UPF
     MD5 check sum: 34a7e343955c81272bbaba64c83307c0
     Pseudo is Ultrasoft, Zval = 13.0
     Generated by new atomic code, or converted to UPF format
     Using radial grid of  853 points,  6 beta functions with: 
                l(1) =   0
                l(2) =   0
                l(3) =   1
                l(4) =   1
                l(5) =   2
                l(6) =   2
     Q(r) pseudized with  8 coefficients,  rinner =    1.200   1.200   1.200
                                                       1.200   1.200

     atomic species   valence    mass     pseudopotential
        V             13.00    50.94150     V ( 1.00)

     48 Sym. Ops., with inversion, found



   Cartesian axes

     site n.     atom                  positions (alat units)
         1           V   tau(   1) = (   0.0000000   0.0000000   0.0000000  )

     number of k points=   145  Marzari-Vanderbilt smearing, width (Ry)=  0.0200

     Number of k-points >= 100: set verbosity='high' to print them.

     Dense  grid:     2093 G-vectors     FFT dimensions: (  18,  18,  18)

     Estimated max dynamical RAM per process >      11.70 MB

     Estimated total dynamical RAM >      23.40 MB

     Initial potential from superposition of free atoms

     starting charge   12.99877, renormalised to   13.00000
     Starting wfcs are random

     total cpu time spent up to now is        1.6 secs

     Self-consistent Calculation

     iteration #  1     ecut=    30.00 Ry     beta= 0.30
     CG style diagonalization
     ethr =  1.00E-02,  avg # of iterations =  8.2

     Threshold (ethr) on eigenvalues was too large:
     Diagonalizing with lowered threshold

     CG style diagonalization
     c_bands:  1 eigenvalues not converged
     c_bands:  1 eigenvalues not converged
     c_bands:  1 eigenvalues not converged
     c_bands:  1 eigenvalues not converged
     c_bands:  1 eigenvalues not converged
     c_bands:  1 eigenvalues not converged
     c_bands:  1 eigenvalues not converged
     c_bands:  1 eigenvalues not converged
     c_bands:  1 eigenvalues not converged
     c_bands:  1 eigenvalues not converged
     c_bands:  1 eigenvalues not converged
     ethr =  1.52E-04,  avg # of iterations =  6.0

     total cpu time spent up to now is       17.6 secs

     total energy              =    -143.72448824 Ry
     Harris-Foulkes estimate   =    -143.75567584 Ry
     estimated scf accuracy    <       0.07607016 Ry

     iteration #  2     ecut=    30.00 Ry     beta= 0.30
     CG style diagonalization
     ethr =  5.85E-04,  avg # of iterations =  3.0

     total cpu time spent up to now is       20.9 secs

     total energy              =    -143.73670665 Ry
     Harris-Foulkes estimate   =    -143.73732311 Ry
     estimated scf accuracy    <       0.00234305 Ry

     iteration #  3     ecut=    30.00 Ry     beta= 0.30
     CG style diagonalization
     c_bands:  1 eigenvalues not converged
     c_bands:  1 eigenvalues not converged
     ethr =  1.80E-05,  avg # of iterations =  3.2

     total cpu time spent up to now is       24.5 secs

     total energy              =    -143.73718730 Ry
     Harris-Foulkes estimate   =    -143.73714167 Ry
     estimated scf accuracy    <       0.00038689 Ry

     iteration #  4     ecut=    30.00 Ry     beta= 0.30
     CG style diagonalization
     c_bands:  1 eigenvalues not converged
     ethr =  2.98E-06,  avg # of iterations =  3.2

     total cpu time spent up to now is       28.1 secs

     total energy              =    -143.73720392 Ry
     Harris-Foulkes estimate   =    -143.73720403 Ry
     estimated scf accuracy    <       0.00000982 Ry

     iteration #  5     ecut=    30.00 Ry     beta= 0.30
     CG style diagonalization
     ethr =  7.55E-08,  avg # of iterations =  3.0

     total cpu time spent up to now is       31.6 secs

     total energy              =    -143.73720553 Ry
     Harris-Foulkes estimate   =    -143.73720568 Ry
     estimated scf accuracy    <       0.00000061 Ry

     iteration #  6     ecut=    30.00 Ry     beta= 0.30
     CG style diagonalization
     ethr =  4.67E-09,  avg # of iterations =  3.3

     total cpu time spent up to now is       35.5 secs

     total energy              =    -143.73720494 Ry
     Harris-Foulkes estimate   =    -143.73720662 Ry
     estimated scf accuracy    <       0.00000385 Ry

     iteration #  7     ecut=    30.00 Ry     beta= 0.30
     CG style diagonalization
     ethr =  4.67E-09,  avg # of iterations =  3.1

     total cpu time spent up to now is       39.1 secs

     total energy              =    -143.73720567 Ry
     Harris-Foulkes estimate   =    -143.73720567 Ry
     estimated scf accuracy    <          1.1E-09 Ry

     iteration #  8     ecut=    30.00 Ry     beta= 0.30
     CG style diagonalization
     ethr =  8.20E-12,  avg # of iterations =  3.4

     total cpu time spent up to now is       43.1 secs

     total energy              =    -143.73720566 Ry
     Harris-Foulkes estimate   =    -143.73720569 Ry
     estimated scf accuracy    <       0.00000006 Ry

     iteration #  9     ecut=    30.00 Ry     beta= 0.30
     CG style diagonalization
     ethr =  8.20E-12,  avg # of iterations =  3.3

     total cpu time spent up to now is       46.9 secs

     total energy              =    -143.73720567 Ry
     Harris-Foulkes estimate   =    -143.73720567 Ry
     estimated scf accuracy    <          1.4E-10 Ry

     iteration # 10     ecut=    30.00 Ry     beta= 0.30
     CG style diagonalization
     ethr =  1.08E-12,  avg # of iterations =  3.2

     total cpu time spent up to now is       50.4 secs

     total energy              =    -143.73720567 Ry
     Harris-Foulkes estimate   =    -143.73720567 Ry
     estimated scf accuracy    <          2.6E-10 Ry

     iteration # 11     ecut=    30.00 Ry     beta= 0.30
     CG style diagonalization
     ethr =  1.08E-12,  avg # of iterations =  3.0

     total cpu time spent up to now is       53.9 secs

     total energy              =    -143.73720567 Ry
     Harris-Foulkes estimate   =    -143.73720567 Ry
     estimated scf accuracy    <          2.7E-10 Ry

     iteration # 12     ecut=    30.00 Ry     beta= 0.30
     CG style diagonalization
     ethr =  1.08E-12,  avg # of iterations =  3.0

     total cpu time spent up to now is       57.3 secs

     total energy              =    -143.73720567 Ry
     Harris-Foulkes estimate   =    -143.73720567 Ry
     estimated scf accuracy    <          7.3E-11 Ry

     iteration # 13     ecut=    30.00 Ry     beta= 0.30
     CG style diagonalization
     ethr =  5.63E-13,  avg # of iterations =  3.0

     total cpu time spent up to now is       61.3 secs

     total energy              =    -143.73720567 Ry
     Harris-Foulkes estimate   =    -143.73720567 Ry
     estimated scf accuracy    <          1.4E-11 Ry

     iteration # 14     ecut=    30.00 Ry     beta= 0.30
     CG style diagonalization
     ethr =  1.08E-13,  avg # of iterations =  3.0

     total cpu time spent up to now is       64.9 secs

     End of self-consistent calculation

     Number of k-points >= 100: set verbosity='high' to print the bands.

     the Fermi energy is    15.9314 ev

!    total energy              =    -143.73720567 Ry
     Harris-Foulkes estimate   =    -143.73720567 Ry
     estimated scf accuracy    <          1.4E-13 Ry

     The total energy is the sum of the following terms:

     one-electron contribution =     -49.48725656 Ry
     hartree contribution      =      30.27764642 Ry
     xc contribution           =     -17.11521410 Ry
     ewald contribution        =    -107.41257718 Ry
     smearing contrib. (-TS)   =       0.00019574 Ry

     convergence has been achieved in  14 iterations

     Writing output data file /home/edmondium/Documents/qe-6.7/tempdir/pwscf.save/

     init_run     :      1.09s CPU      1.13s WALL (       1 calls)
     electrons    :     57.27s CPU     63.31s WALL (       1 calls)

     Called by init_run:
     wfcinit      :      0.86s CPU      0.90s WALL (       1 calls)
     potinit      :      0.01s CPU      0.01s WALL (       1 calls)
     hinit0       :      0.21s CPU      0.21s WALL (       1 calls)

     Called by electrons:
     c_bands      :     51.85s CPU     57.39s WALL (      15 calls)
     sum_band     :      5.30s CPU      5.79s WALL (      15 calls)
     v_of_rho     :      0.04s CPU      0.05s WALL (      15 calls)
     newd         :      0.07s CPU      0.07s WALL (      15 calls)
     mix_rho      :      0.01s CPU      0.01s WALL (      15 calls)

     Called by c_bands:
     init_us_2    :      0.37s CPU      0.41s WALL (    4495 calls)
     ccgdiagg     :     40.84s CPU     45.15s WALL (    2175 calls)
     wfcrot       :     11.47s CPU     12.71s WALL (    2030 calls)

     Called by sum_band:
     sum_band:bec :      0.05s CPU      0.06s WALL (    2175 calls)
     addusdens    :      0.06s CPU      0.08s WALL (      15 calls)

     Called by *cgdiagg:
     h_psi        :     37.29s CPU     41.28s WALL (  154124 calls)
     s_psi        :      3.32s CPU      3.70s WALL (  306218 calls)
     cdiaghg      :      0.96s CPU      1.05s WALL (    2030 calls)

     Called by h_psi:
     h_psi:calbec :      2.95s CPU      3.26s WALL (  154124 calls)
     vloc_psi     :     31.92s CPU     35.33s WALL (  154124 calls)
     add_vuspsi   :      1.78s CPU      1.98s WALL (  154124 calls)
     hs_1psi      :     31.23s CPU     34.47s WALL (  152094 calls)
     s_1psi       :      4.10s CPU      4.50s WALL (  152094 calls)

     General routines
     calbec       :      4.88s CPU      5.46s WALL (  308393 calls)
     fft          :      0.02s CPU      0.02s WALL (     165 calls)
     ffts         :      0.00s CPU      0.00s WALL (      15 calls)
     fftw         :     32.21s CPU     35.60s WALL (  460063 calls)

     Parallel routines
     fft_scatt_xy :      3.64s CPU      4.02s WALL (  460243 calls)
     fft_scatt_yz :      7.10s CPU      7.95s WALL (  460243 calls)

     PWSCF        :     58.90s CPU   1m 5.01s WALL


   This run was terminated on:  18:36: 2  12Jan2021            

=------------------------------------------------------------------------------=
   JOB DONE.
=------------------------------------------------------------------------------=
