
     Program PWSCF v.6.5 starts on 28Jan2021 at 12:29:26 

     This program is part of the open-source Quantum ESPRESSO suite
     for quantum simulation of materials; please cite
         "P. Giannozzi et al., J. Phys.:Condens. Matter 21 395502 (2009);
         "P. Giannozzi et al., J. Phys.:Condens. Matter 29 465901 (2017);
          URL http://www.quantum-espresso.org", 
     in publications or presentations arising from this work. More details at
     http://www.quantum-espresso.org/quote

     Parallel version (MPI), running on     4 processors

     MPI processes distributed on     1 nodes
     R & G space division:  proc/nbgrp/npool/nimage =       4
     Waiting for input...
     Reading input from standard input

     Current dimensions of program PWSCF are:
     Max number of different atomic species (ntypx) = 10
     Max number of k-points (npk) =  40000
     Max angular momentum in pseudopotentials (lmaxx) =  3

     Subspace diagonalization in iterative solution of the eigenvalue problem:
     a serial algorithm will be used


     Parallelization info
     --------------------
     sticks:   dense  smooth     PW     G-vecs:    dense   smooth      PW
     Min          54      54     19                  522      522     107
     Max          55      55     20                  525      525     108
     Sum         219     219     77                 2093     2093     429



     bravais-lattice index     =            3
     lattice parameter (alat)  =       5.7259  a.u.
     unit-cell volume          =      93.8630 (a.u.)^3
     number of atoms/cell      =            1
     number of atomic types    =            1
     number of electrons       =        13.00
     number of Kohn-Sham states=           25
     kinetic-energy cutoff     =      30.0000  Ry
     charge density cutoff     =     120.0000  Ry
     convergence threshold     =      1.0E-12
     mixing beta               =       0.3000
     number of iterations used =            8  plain     mixing
     Exchange-correlation= SLA PW PBE PBE
                           (   1   4   3   4   0   0   0)

     celldm(1)=   5.725870  celldm(2)=   0.000000  celldm(3)=   0.000000
     celldm(4)=   0.000000  celldm(5)=   0.000000  celldm(6)=   0.000000

     crystal axes: (cart. coord. in units of alat)
               a(1) = (   0.500000   0.500000   0.500000 )  
               a(2) = (  -0.500000   0.500000   0.500000 )  
               a(3) = (  -0.500000  -0.500000   0.500000 )  

     reciprocal axes: (cart. coord. in units 2 pi/alat)
               b(1) = (  1.000000  0.000000  1.000000 )  
               b(2) = ( -1.000000  1.000000  0.000000 )  
               b(3) = (  0.000000 -1.000000  1.000000 )  


     PseudoPot. # 1 for V  read from file:
     /home/edmondium/quantum/pseudo/V.pbe-sp-van.UPF
     MD5 check sum: 34a7e343955c81272bbaba64c83307c0
     Pseudo is Ultrasoft, Zval = 13.0
     Generated by new atomic code, or converted to UPF format
     Using radial grid of  853 points,  6 beta functions with: 
                l(1) =   0
                l(2) =   0
                l(3) =   1
                l(4) =   1
                l(5) =   2
                l(6) =   2
     Q(r) pseudized with  8 coefficients,  rinner =    1.200   1.200   1.200
                                                       1.200   1.200

     atomic species   valence    mass     pseudopotential
        V             13.00    50.94150     V ( 1.00)

     48 Sym. Ops., with inversion, found



   Cartesian axes

     site n.     atom                  positions (alat units)
         1           V   tau(   1) = (   0.0000000   0.0000000   0.0000000  )

     number of k points=   145  Marzari-Vanderbilt smearing, width (Ry)=  0.0200

     Number of k-points >= 100: set verbosity='high' to print them.

     Dense  grid:     2093 G-vectors     FFT dimensions: (  18,  18,  18)

     Estimated max dynamical RAM per process >       6.27 MB

     Estimated total dynamical RAM >      25.07 MB

     Initial potential from superposition of free atoms

     starting charge   12.99877, renormalised to   13.00000
     Starting wfcs are random

     total cpu time spent up to now is        0.6 secs

     Self-consistent Calculation

     iteration #  1     ecut=    30.00 Ry     beta= 0.30
     CG style diagonalization
     ethr =  1.00E-02,  avg # of iterations =  8.2

     Threshold (ethr) on eigenvalues was too large:
     Diagonalizing with lowered threshold

     CG style diagonalization
     c_bands:  1 eigenvalues not converged
     c_bands:  1 eigenvalues not converged
     c_bands:  1 eigenvalues not converged
     c_bands:  1 eigenvalues not converged
     ethr =  2.18E-04,  avg # of iterations =  5.4

     total cpu time spent up to now is        7.2 secs

     total energy              =    -143.72362777 Ry
     Harris-Foulkes estimate   =    -143.75519393 Ry
     estimated scf accuracy    <       0.07694134 Ry

     iteration #  2     ecut=    30.00 Ry     beta= 0.30
     CG style diagonalization
     ethr =  5.92E-04,  avg # of iterations =  3.0

     total cpu time spent up to now is        8.5 secs

     total energy              =    -143.73667598 Ry
     Harris-Foulkes estimate   =    -143.73724742 Ry
     estimated scf accuracy    <       0.00227107 Ry

     iteration #  3     ecut=    30.00 Ry     beta= 0.30
     CG style diagonalization
     ethr =  1.75E-05,  avg # of iterations =  3.3

     total cpu time spent up to now is        9.9 secs

     total energy              =    -143.73718459 Ry
     Harris-Foulkes estimate   =    -143.73713527 Ry
     estimated scf accuracy    <       0.00039434 Ry

     iteration #  4     ecut=    30.00 Ry     beta= 0.30
     CG style diagonalization
     c_bands:  1 eigenvalues not converged
     ethr =  3.03E-06,  avg # of iterations =  3.2

     total cpu time spent up to now is       11.4 secs

     total energy              =    -143.73720355 Ry
     Harris-Foulkes estimate   =    -143.73720379 Ry
     estimated scf accuracy    <       0.00000516 Ry

     iteration #  5     ecut=    30.00 Ry     beta= 0.30
     CG style diagonalization
     ethr =  3.97E-08,  avg # of iterations =  3.1

     total cpu time spent up to now is       12.7 secs

     total energy              =    -143.73720547 Ry
     Harris-Foulkes estimate   =    -143.73720564 Ry
     estimated scf accuracy    <       0.00000052 Ry

     iteration #  6     ecut=    30.00 Ry     beta= 0.30
     CG style diagonalization
     ethr =  4.01E-09,  avg # of iterations =  3.3

     total cpu time spent up to now is       14.2 secs

     total energy              =    -143.73720510 Ry
     Harris-Foulkes estimate   =    -143.73720628 Ry
     estimated scf accuracy    <       0.00000256 Ry

     iteration #  7     ecut=    30.00 Ry     beta= 0.30
     CG style diagonalization
     ethr =  4.01E-09,  avg # of iterations =  3.0

     total cpu time spent up to now is       15.5 secs

     total energy              =    -143.73720566 Ry
     Harris-Foulkes estimate   =    -143.73720567 Ry
     estimated scf accuracy    <       0.00000003 Ry

     iteration #  8     ecut=    30.00 Ry     beta= 0.30
     CG style diagonalization
     ethr =  1.97E-10,  avg # of iterations =  3.0

     total cpu time spent up to now is       16.9 secs

     total energy              =    -143.73720567 Ry
     Harris-Foulkes estimate   =    -143.73720568 Ry
     estimated scf accuracy    <       0.00000002 Ry

     iteration #  9     ecut=    30.00 Ry     beta= 0.30
     CG style diagonalization
     ethr =  1.30E-10,  avg # of iterations =  3.0

     total cpu time spent up to now is       18.2 secs

     total energy              =    -143.73720567 Ry
     Harris-Foulkes estimate   =    -143.73720567 Ry
     estimated scf accuracy    <          1.3E-10 Ry

     iteration # 10     ecut=    30.00 Ry     beta= 0.30
     CG style diagonalization
     ethr =  1.02E-12,  avg # of iterations =  3.3

     total cpu time spent up to now is       19.7 secs

     total energy              =    -143.73720567 Ry
     Harris-Foulkes estimate   =    -143.73720567 Ry
     estimated scf accuracy    <          3.5E-09 Ry

     iteration # 11     ecut=    30.00 Ry     beta= 0.30
     CG style diagonalization
     ethr =  1.02E-12,  avg # of iterations =  3.3

     total cpu time spent up to now is       21.1 secs

     total energy              =    -143.73720567 Ry
     Harris-Foulkes estimate   =    -143.73720567 Ry
     estimated scf accuracy    <          7.8E-12 Ry

     iteration # 12     ecut=    30.00 Ry     beta= 0.30
     CG style diagonalization
     ethr =  1.00E-13,  avg # of iterations =  3.1

     total cpu time spent up to now is       22.4 secs

     End of self-consistent calculation

     Number of k-points >= 100: set verbosity='high' to print the bands.

     the Fermi energy is    15.9314 ev

!    total energy              =    -143.73720567 Ry
     Harris-Foulkes estimate   =    -143.73720567 Ry
     estimated scf accuracy    <          2.2E-13 Ry

     The total energy is the sum of the following terms:

     one-electron contribution =     -49.48725749 Ry
     hartree contribution      =      30.27764752 Ry
     xc contribution           =     -17.11521427 Ry
     ewald contribution        =    -107.41257718 Ry
     smearing contrib. (-TS)   =       0.00019574 Ry

     convergence has been achieved in  12 iterations

     Writing output data file /home/edmondium/quantum/tempdir/pwscf.save/

     init_run     :      0.30s CPU      0.35s WALL (       1 calls)
     electrons    :     19.48s CPU     21.84s WALL (       1 calls)

     Called by init_run:
     wfcinit      :      0.25s CPU      0.30s WALL (       1 calls)
     potinit      :      0.00s CPU      0.00s WALL (       1 calls)
     hinit0       :      0.05s CPU      0.05s WALL (       1 calls)

     Called by electrons:
     c_bands      :     17.89s CPU     20.10s WALL (      13 calls)
     sum_band     :      1.56s CPU      1.71s WALL (      13 calls)
     v_of_rho     :      0.01s CPU      0.01s WALL (      13 calls)
     newd         :      0.02s CPU      0.02s WALL (      13 calls)
     mix_rho      :      0.00s CPU      0.00s WALL (      13 calls)

     Called by c_bands:
     init_us_2    :      0.08s CPU      0.09s WALL (    3915 calls)
     ccgdiagg     :     14.93s CPU     16.80s WALL (    1885 calls)
     wfcrot       :      3.09s CPU      3.47s WALL (    1740 calls)

     Called by sum_band:
     sum_band:bec :      0.01s CPU      0.01s WALL (    1885 calls)
     addusdens    :      0.02s CPU      0.02s WALL (      13 calls)

     Called by *cgdiagg:
     h_psi        :     12.30s CPU     13.84s WALL (  136451 calls)
     s_psi        :      0.69s CPU      0.80s WALL (  271162 calls)
     cdiaghg      :      0.37s CPU      0.42s WALL (    1740 calls)

     Called by h_psi:
     h_psi:calbec :      1.06s CPU      1.19s WALL (  136451 calls)
     vloc_psi     :     10.20s CPU     11.48s WALL (  136451 calls)
     add_vuspsi   :      0.62s CPU      0.70s WALL (  136451 calls)
     hs_1psi      :     10.79s CPU     12.13s WALL (  134711 calls)
     s_1psi       :      1.46s CPU      1.63s WALL (  134711 calls)

     General routines
     calbec       :      1.52s CPU      1.73s WALL (  273047 calls)
     fft          :      0.01s CPU      0.01s WALL (     143 calls)
     ffts         :      0.00s CPU      0.00s WALL (      13 calls)
     fftw         :     10.38s CPU     11.63s WALL (  403547 calls)

     Parallel routines
     fft_scatt_xy :      1.11s CPU      1.24s WALL (  403703 calls)
     fft_scatt_yz :      3.60s CPU      4.01s WALL (  403703 calls)

     PWSCF        :     20.11s CPU     22.52s WALL


   This run was terminated on:  12:29:48  28Jan2021            

=------------------------------------------------------------------------------=
   JOB DONE.
=------------------------------------------------------------------------------=
