
     Program PWSCF v.6.5 starts on 19Jan2021 at 12:36:55 

     This program is part of the open-source Quantum ESPRESSO suite
     for quantum simulation of materials; please cite
         "P. Giannozzi et al., J. Phys.:Condens. Matter 21 395502 (2009);
         "P. Giannozzi et al., J. Phys.:Condens. Matter 29 465901 (2017);
          URL http://www.quantum-espresso.org", 
     in publications or presentations arising from this work. More details at
     http://www.quantum-espresso.org/quote

     Parallel version (MPI), running on     4 processors

     MPI processes distributed on     1 nodes
     R & G space division:  proc/nbgrp/npool/nimage =       4
     Waiting for input...
     Reading input from standard input
Warning: card  &IONS ignored
Warning: card  / ignored
Warning: card  &CELL ignored
Warning: card  / ignored

     Current dimensions of program PWSCF are:
     Max number of different atomic species (ntypx) = 10
     Max number of k-points (npk) =  40000
     Max angular momentum in pseudopotentials (lmaxx) =  3

     Atomic positions and unit cell read from directory:
     /home/edmondium/quantum/tempdir/pwscf.save/                                                                                                                                                                                                                     

               file Zn.pbe-dnl-rrkjus_psl.1.0.0.UPF: wavefunction(s)  3D renormalized

     Subspace diagonalization in iterative solution of the eigenvalue problem:
     a serial algorithm will be used


     Parallelization info
     --------------------
     sticks:   dense  smooth     PW     G-vecs:    dense   smooth      PW
     Min         118      77     22                19946    10229    1756
     Max         119      79     23                19987    10245    1767
     Sum         475     313     91                79899    40951    7053



     bravais-lattice index     =            4
     lattice parameter (alat)  =       5.0359  a.u.
     unit-cell volume          =    1033.9349 (a.u.)^3
     number of atoms/cell      =            2
     number of atomic types    =            1
     number of electrons       =        24.00
     number of Kohn-Sham states=           28
     kinetic-energy cutoff     =      44.0000  Ry
     charge density cutoff     =     276.0000  Ry
     Exchange-correlation= PBE
                           (   1   4   3   4   0   0   0)

     celldm(1)=   5.035931  celldm(2)=   0.000000  celldm(3)=   9.348097
     celldm(4)=   0.000000  celldm(5)=   0.000000  celldm(6)=   0.000000

     crystal axes: (cart. coord. in units of alat)
               a(1) = (   1.000000   0.000000   0.000000 )  
               a(2) = (  -0.500000   0.866025   0.000000 )  
               a(3) = (   0.000000   0.000000   9.348097 )  

     reciprocal axes: (cart. coord. in units 2 pi/alat)
               b(1) = (  1.000000  0.577350 -0.000000 )  
               b(2) = (  0.000000  1.154701  0.000000 )  
               b(3) = (  0.000000 -0.000000  0.106974 )  


     PseudoPot. # 1 for Zn read from file:
     /home/edmondium/quantum/pseudo/Zn.pbe-dnl-rrkjus_psl.1.0.0.UPF
     MD5 check sum: 7f56cabf9682ed8c977c2f7d0c5985c5
     Pseudo is Ultrasoft + core correction, Zval = 12.0
     Generated using "atomic" code by A. Dal Corso v.6.2.2
     Using radial grid of 1201 points,  6 beta functions with: 
                l(1) =   0
                l(2) =   0
                l(3) =   1
                l(4) =   1
                l(5) =   2
                l(6) =   2
     Q(r) pseudized with 0 coefficients 


     atomic species   valence    mass     pseudopotential
        Zn            12.00    65.38000     Zn( 1.00)

     No symmetry found



   Cartesian axes

     site n.     atom                  positions (alat units)
         1           Zn  tau(   1) = (   0.0000000   0.0000000   0.0000000  )
         2           Zn  tau(   2) = (   0.6670000   0.3330000   0.5000000  )

     number of k points=   210

     Number of k-points >= 100: set verbosity='high' to print them.

     Dense  grid:    79899 G-vectors     FFT dimensions: (  27,  27, 250)

     Smooth grid:    40951 G-vectors     FFT dimensions: (  24,  24, 200)

     Estimated max dynamical RAM per process >      65.50 MB

     Estimated total dynamical RAM >     262.02 MB

     Check: negative core charge=   -0.000004

     The potential is recalculated from file :
     /home/edmondium/quantum/tempdir/pwscf.save/charge-density


     negative rho (up, down):  1.162E-03 0.000E+00
     Starting wfcs are random

     Band Structure Calculation
     CG style diagonalization
     c_bands:  3 eigenvalues not converged
     c_bands:  3 eigenvalues not converged
     c_bands:  2 eigenvalues not converged
     c_bands:  2 eigenvalues not converged
     c_bands:  3 eigenvalues not converged
     c_bands:  2 eigenvalues not converged
     c_bands:  3 eigenvalues not converged
     c_bands:  1 eigenvalues not converged
     c_bands:  2 eigenvalues not converged
     c_bands:  2 eigenvalues not converged
     c_bands:  2 eigenvalues not converged
     c_bands:  2 eigenvalues not converged
     c_bands:  2 eigenvalues not converged
     c_bands:  2 eigenvalues not converged
     c_bands:  1 eigenvalues not converged
     c_bands:  2 eigenvalues not converged
     c_bands:  1 eigenvalues not converged
     c_bands:  2 eigenvalues not converged
     c_bands:  1 eigenvalues not converged
     c_bands:  2 eigenvalues not converged
     c_bands:  2 eigenvalues not converged
     c_bands:  1 eigenvalues not converged
     c_bands:  1 eigenvalues not converged
     c_bands:  1 eigenvalues not converged
     c_bands:  2 eigenvalues not converged
     c_bands:  2 eigenvalues not converged
     c_bands:  1 eigenvalues not converged
     c_bands:  1 eigenvalues not converged
     c_bands:  1 eigenvalues not converged
     c_bands:  1 eigenvalues not converged
     c_bands:  1 eigenvalues not converged
     c_bands:  2 eigenvalues not converged
     c_bands:  2 eigenvalues not converged
     c_bands:  1 eigenvalues not converged
     c_bands:  1 eigenvalues not converged
     c_bands:  2 eigenvalues not converged
     c_bands:  3 eigenvalues not converged
     c_bands:  2 eigenvalues not converged
     c_bands:  2 eigenvalues not converged
     c_bands:  1 eigenvalues not converged
     c_bands:  1 eigenvalues not converged
     c_bands:  1 eigenvalues not converged
     c_bands:  1 eigenvalues not converged
     c_bands:  1 eigenvalues not converged
     c_bands:  1 eigenvalues not converged
     c_bands:  1 eigenvalues not converged
     c_bands:  1 eigenvalues not converged
     c_bands:  1 eigenvalues not converged
     c_bands:  2 eigenvalues not converged
     c_bands:  1 eigenvalues not converged
     c_bands:  1 eigenvalues not converged
     c_bands:  1 eigenvalues not converged
     c_bands:  1 eigenvalues not converged
     c_bands:  1 eigenvalues not converged
     c_bands:  1 eigenvalues not converged
     c_bands:  1 eigenvalues not converged
     c_bands:  1 eigenvalues not converged
     c_bands:  2 eigenvalues not converged
     c_bands:  1 eigenvalues not converged
     c_bands:  1 eigenvalues not converged
     c_bands:  1 eigenvalues not converged
     c_bands:  2 eigenvalues not converged
     c_bands:  1 eigenvalues not converged
     c_bands:  1 eigenvalues not converged
     c_bands:  1 eigenvalues not converged
     c_bands:  1 eigenvalues not converged
     c_bands:  2 eigenvalues not converged
     c_bands:  2 eigenvalues not converged
     c_bands:  1 eigenvalues not converged
     c_bands:  2 eigenvalues not converged
     c_bands:  2 eigenvalues not converged
     c_bands:  1 eigenvalues not converged
     c_bands:  1 eigenvalues not converged
     c_bands:  3 eigenvalues not converged
     c_bands:  2 eigenvalues not converged
     c_bands:  1 eigenvalues not converged
     c_bands:  2 eigenvalues not converged
     c_bands:  2 eigenvalues not converged
     c_bands:  1 eigenvalues not converged
     c_bands:  2 eigenvalues not converged
     c_bands:  2 eigenvalues not converged
     c_bands:  1 eigenvalues not converged
     c_bands:  1 eigenvalues not converged
     c_bands:  1 eigenvalues not converged
     c_bands:  2 eigenvalues not converged
     c_bands:  1 eigenvalues not converged
     c_bands:  1 eigenvalues not converged
     c_bands:  1 eigenvalues not converged
     c_bands:  1 eigenvalues not converged
     c_bands:  1 eigenvalues not converged
     c_bands:  2 eigenvalues not converged
     c_bands:  2 eigenvalues not converged
     c_bands:  1 eigenvalues not converged
     c_bands:  1 eigenvalues not converged
     c_bands:  2 eigenvalues not converged
     c_bands:  2 eigenvalues not converged
     c_bands:  1 eigenvalues not converged
     c_bands:  2 eigenvalues not converged
     c_bands:  1 eigenvalues not converged
     c_bands:  1 eigenvalues not converged
     c_bands:  1 eigenvalues not converged
     c_bands:  1 eigenvalues not converged
     c_bands:  1 eigenvalues not converged
     c_bands:  1 eigenvalues not converged
     c_bands:  1 eigenvalues not converged
     c_bands:  1 eigenvalues not converged
     c_bands:  2 eigenvalues not converged
     c_bands:  1 eigenvalues not converged
     c_bands:  1 eigenvalues not converged
     c_bands:  3 eigenvalues not converged
     c_bands:  1 eigenvalues not converged
     c_bands:  1 eigenvalues not converged
     c_bands:  1 eigenvalues not converged
     c_bands:  1 eigenvalues not converged
     c_bands:  2 eigenvalues not converged
     c_bands:  1 eigenvalues not converged
     c_bands:  1 eigenvalues not converged
     c_bands:  1 eigenvalues not converged
     c_bands:  1 eigenvalues not converged
     c_bands:  2 eigenvalues not converged
     c_bands:  2 eigenvalues not converged
     c_bands:  2 eigenvalues not converged
     c_bands:  2 eigenvalues not converged
     c_bands:  2 eigenvalues not converged
     c_bands:  1 eigenvalues not converged
     c_bands:  1 eigenvalues not converged
     c_bands:  1 eigenvalues not converged
     c_bands:  2 eigenvalues not converged
     c_bands:  3 eigenvalues not converged
     c_bands:  3 eigenvalues not converged
     c_bands:  1 eigenvalues not converged
     c_bands:  1 eigenvalues not converged
     c_bands:  4 eigenvalues not converged
     c_bands:  4 eigenvalues not converged
     c_bands:  3 eigenvalues not converged
     c_bands:  3 eigenvalues not converged
     c_bands:  2 eigenvalues not converged
     c_bands:  2 eigenvalues not converged
     c_bands:  5 eigenvalues not converged

     ethr =  4.17E-13,  avg # of iterations = 77.2

     total cpu time spent up to now is      698.1 secs

     End of band structure calculation

     Number of k-points >= 100: set verbosity='high' to print the bands.

     highest occupied, lowest unoccupied level (ev):    -0.5007   -1.1677



               ==================================================
                            POLARIZATION CALCULATION
                         !!! NOT THOROUGHLY TESTED !!!
               --------------------------------------------------


                     K-POINTS STRINGS USED IN CALCULATIONS
                     ~~~~~~~~~~~~~~~~~~~~~~~~~~~~~~~~~~~~~

       G-vector along string (2 pi/a):  0.00000  0.00000  0.10697
       Modulus of the vector (1/bohr):  0.13347
       Number of k-points per string:   7
       Number of different strings  :  30


                               IONIC POLARIZATION
                               ~~~~~~~~~~~~~~~~~~

  ============================================================================
    Ion    Species    Charge              Position                Phase
  ----------------------------------------------------------------------------
     1        Zn      12.000       0.0000  0.0000  0.0000     0.00000 (mod 2)
     2        Zn      12.000       0.6670  0.3330  0.5000     0.64184 (mod 2)
  ----------------------------------------------------------------------------
                                               IONIC PHASE:   0.64184 (mod 2)
  ============================================================================


                            ELECTRONIC POLARIZATION
                            ~~~~~~~~~~~~~~~~~~~~~~~

  ============================================================================
    String     Weight      First k-point in string         Phase
  ----------------------------------------------------------------------------
       1      0.003906      0.0000  0.0000  0.0000    -0.64184
       2      0.023437      0.0000  0.0722  0.0000    -0.64184
       3      0.023437      0.0000  0.1443  0.0000    -0.64184
       4      0.023437      0.0000  0.2165  0.0000    -0.64184
       5      0.023437      0.0000  0.2887  0.0000    -0.64184
       6      0.023437      0.0000  0.3608  0.0000    -0.64184
       7      0.023437      0.0000  0.4330  0.0000    -0.64184
       8      0.023437      0.0000  0.5052  0.0000    -0.64184
       9      0.011719      0.0000 -0.5774  0.0000    -0.64184
      10      0.023437      0.0625  0.1083  0.0000    -0.64184
      11      0.046875      0.0625  0.1804  0.0000    -0.64184
      12      0.046875      0.0625  0.2526  0.0000    -0.64184
      13      0.046875      0.0625  0.3248  0.0000    -0.64184
      14      0.046875      0.0625  0.3969  0.0000    -0.64184
      15      0.046875      0.0625  0.4691  0.0000    -0.64184
      16      0.046875      0.0625  0.5413  0.0000    -0.64184
      17      0.023437      0.1250  0.2165  0.0000    -0.64184
      18      0.046875      0.1250  0.2887  0.0000    -0.64184
      19      0.046875      0.1250  0.3608  0.0000    -0.64184
      20      0.046875      0.1250  0.4330  0.0000    -0.64184
      21      0.046875      0.1250  0.5052  0.0000    -0.64184
      22      0.023437      0.1250  0.5774  0.0000    -0.64184
      23      0.023437      0.1875  0.3248  0.0000    -0.64184
      24      0.046875      0.1875  0.3969  0.0000    -0.64184
      25      0.046875      0.1875  0.4691  0.0000    -0.64184
      26      0.046875      0.1875  0.5413  0.0000    -0.64184
      27      0.023437      0.2500  0.4330  0.0000    -0.64184
      28      0.046875      0.2500  0.5052  0.0000    -0.64184
      29      0.023437      0.2500  0.5774  0.0000    -0.64184
      30      0.023437      0.3125  0.5413  0.0000    -0.64184
  ----------------------------------------------------------------------------
                                          ELECTRONIC PHASE:   0.35816
  ============================================================================


                               SUMMARY OF PHASES
                               ~~~~~~~~~~~~~~~~~

                          Ionic Phase:  0.64184
                     Electronic Phase:  0.35816
                          TOTAL PHASE:  1.00000 MOD_TOT: 2


                             VALUES OF POLARIZATION
                             ~~~~~~~~~~~~~~~~~~~~~~

        The calculation of phases done along the direction of vector 3
        of the reciprocal lattice gives the following contribution to
        the polarization vector (in different units, and being Omega
        the volume of the unit cell):

           P =  47.0763736  (mod  94.1527478)  (e/Omega).bohr

           P =   0.0455313  (mod   0.0910625)  e/bohr^2

           P =   2.6031013  (mod   5.2062027)  C/m^2

        The polarization direction is:  ( 0.00000 , 0.00000 , 1.00000 )


               ==================================================



     Writing output data file /home/edmondium/quantum/tempdir/pwscf.save/

     init_run     :      0.69s CPU      0.94s WALL (       1 calls)
     electrons    :    678.41s CPU    695.52s WALL (       1 calls)

     Called by init_run:
     wfcinit      :      0.00s CPU      0.00s WALL (       1 calls)
     potinit      :      0.06s CPU      0.07s WALL (       1 calls)
     hinit0       :      0.27s CPU      0.39s WALL (       1 calls)

     Called by electrons:
     c_bands      :    676.83s CPU    693.85s WALL (       1 calls)
     v_of_rho     :      0.05s CPU      0.05s WALL (       1 calls)
     newd         :      0.26s CPU      0.36s WALL (       1 calls)

     Called by c_bands:
     init_us_2    :      0.23s CPU      0.25s WALL (     570 calls)
     ccgdiagg     :    647.09s CPU    663.21s WALL (    1213 calls)
     wfcrot       :     29.03s CPU     29.86s WALL (    1213 calls)

     Called by sum_band:

     Called by *cgdiagg:
     h_psi        :    508.18s CPU    521.08s WALL (  411542 calls)
     s_psi        :     22.75s CPU     23.46s WALL (  821871 calls)
     cdiaghg      :      0.40s CPU      0.41s WALL (    1213 calls)

     Called by h_psi:
     h_psi:calbec :     55.73s CPU     57.13s WALL (  411542 calls)
     vloc_psi     :    382.16s CPU    391.89s WALL (  411542 calls)
     add_vuspsi   :     66.33s CPU     68.14s WALL (  411542 calls)
     hs_1psi      :    498.10s CPU    510.50s WALL (  410329 calls)
     s_1psi       :     27.05s CPU     27.62s WALL (  410329 calls)

     General routines
     calbec       :     69.03s CPU     70.99s WALL (  822231 calls)
     fft          :      0.07s CPU      0.08s WALL (      13 calls)
     ffts         :      0.00s CPU      0.00s WALL (       1 calls)
     fftw         :    316.36s CPU    324.35s WALL (  888586 calls)
     interpolate  :      0.00s CPU      0.00s WALL (       1 calls)
     davcio       :      0.27s CPU      0.33s WALL (     780 calls)

     Parallel routines
     fft_scatt_xy :     39.48s CPU     40.48s WALL (  888600 calls)
     fft_scatt_yz :    102.49s CPU    105.11s WALL (  888600 calls)

     PWSCF        :  11m22.12s CPU  11m40.49s WALL


   This run was terminated on:  12:48:36  19Jan2021            

=------------------------------------------------------------------------------=
   JOB DONE.
=------------------------------------------------------------------------------=
