
     Program PWSCF v.6.5 starts on 15Jan2021 at 22:15:34 

     This program is part of the open-source Quantum ESPRESSO suite
     for quantum simulation of materials; please cite
         "P. Giannozzi et al., J. Phys.:Condens. Matter 21 395502 (2009);
         "P. Giannozzi et al., J. Phys.:Condens. Matter 29 465901 (2017);
          URL http://www.quantum-espresso.org", 
     in publications or presentations arising from this work. More details at
     http://www.quantum-espresso.org/quote

     Parallel version (MPI), running on     2 processors

     MPI processes distributed on     1 nodes
     R & G space division:  proc/nbgrp/npool/nimage =       2
     Waiting for input...
     Reading input from standard input

     Current dimensions of program PWSCF are:
     Max number of different atomic species (ntypx) = 10
     Max number of k-points (npk) =  40000
     Max angular momentum in pseudopotentials (lmaxx) =  3

     Atomic positions and unit cell read from directory:
     /home/edmondium/Documents/qe-6.7/tempdir/pwscf.save/                                                                                                                                                                                                            

               file Zn.pbe-dnl-rrkjus_psl.1.0.0.UPF: wavefunction(s)  3D renormalized

     Subspace diagonalization in iterative solution of the eigenvalue problem:
     a serial algorithm will be used


     Parallelization info
     --------------------
     sticks:   dense  smooth     PW     G-vecs:    dense   smooth      PW
     Min         156     156     45                20475    20475    3523
     Max         157     157     46                20476    20476    3530
     Sum         313     313     91                40951    40951    7053



     bravais-lattice index     =            4
     lattice parameter (alat)  =       5.0359  a.u.
     unit-cell volume          =    1033.9349 (a.u.)^3
     number of atoms/cell      =            1
     number of atomic types    =            1
     number of electrons       =        12.00
     number of Kohn-Sham states=           28
     kinetic-energy cutoff     =      44.0000  Ry
     charge density cutoff     =     176.0000  Ry
     Exchange-correlation= PBE
                           (   1   4   3   4   0   0   0)

     celldm(1)=   5.035931  celldm(2)=   0.000000  celldm(3)=   9.348097
     celldm(4)=   0.000000  celldm(5)=   0.000000  celldm(6)=   0.000000

     crystal axes: (cart. coord. in units of alat)
               a(1) = (   1.000000   0.000000   0.000000 )  
               a(2) = (  -0.500000   0.866025   0.000000 )  
               a(3) = (   0.000000   0.000000   9.348097 )  

     reciprocal axes: (cart. coord. in units 2 pi/alat)
               b(1) = (  1.000000  0.577350 -0.000000 )  
               b(2) = (  0.000000  1.154701  0.000000 )  
               b(3) = (  0.000000 -0.000000  0.106974 )  


     PseudoPot. # 1 for Zn read from file:
     /home/edmondium/Documents/qe-6.7/pseudo/Zn.pbe-dnl-rrkjus_psl.1.0.0.UPF
     MD5 check sum: 7f56cabf9682ed8c977c2f7d0c5985c5
     Pseudo is Ultrasoft + core correction, Zval = 12.0
     Generated using "atomic" code by A. Dal Corso v.6.2.2
     Using radial grid of 1201 points,  6 beta functions with: 
                l(1) =   0
                l(2) =   0
                l(3) =   1
                l(4) =   1
                l(5) =   2
                l(6) =   2
     Q(r) pseudized with 0 coefficients 


     atomic species   valence    mass     pseudopotential
        Zn            12.00    65.38000     Zn( 1.00)

     No symmetry found



   Cartesian axes

     site n.     atom                  positions (alat units)
         1           Zn  tau(   1) = (   0.0000000   0.0000000   0.0000000  )

     number of k points=   210

     Number of k-points >= 100: set verbosity='high' to print them.

     Dense  grid:    40951 G-vectors     FFT dimensions: (  24,  24, 200)

     Estimated max dynamical RAM per process >      67.79 MB

     Estimated total dynamical RAM >     135.57 MB

     Check: negative core charge=   -0.000011

     The potential is recalculated from file :
     /home/edmondium/Documents/qe-6.7/tempdir/pwscf.save/charge-density


     negative rho (up, down):  1.373E-03 0.000E+00
     Starting wfcs are random

     Band Structure Calculation
     CG style diagonalization
     c_bands:  1 eigenvalues not converged
     c_bands:  1 eigenvalues not converged
     c_bands:  1 eigenvalues not converged
     c_bands:  1 eigenvalues not converged
     c_bands:  1 eigenvalues not converged
     c_bands:  1 eigenvalues not converged
     c_bands:  2 eigenvalues not converged
     c_bands:  1 eigenvalues not converged
     c_bands:  1 eigenvalues not converged
     c_bands:  1 eigenvalues not converged
     c_bands:  1 eigenvalues not converged
     c_bands:  2 eigenvalues not converged
     c_bands:  2 eigenvalues not converged
     c_bands:  1 eigenvalues not converged
     c_bands:  1 eigenvalues not converged
     c_bands:  1 eigenvalues not converged
     c_bands:  2 eigenvalues not converged
     c_bands:  2 eigenvalues not converged
     c_bands:  2 eigenvalues not converged
     c_bands:  2 eigenvalues not converged
     c_bands:  1 eigenvalues not converged
     c_bands:  1 eigenvalues not converged
     c_bands:  1 eigenvalues not converged
     c_bands:  2 eigenvalues not converged
     c_bands:  3 eigenvalues not converged
     c_bands:  2 eigenvalues not converged
     c_bands:  2 eigenvalues not converged
     c_bands:  2 eigenvalues not converged
     c_bands:  1 eigenvalues not converged
     c_bands:  1 eigenvalues not converged
     c_bands:  2 eigenvalues not converged
     c_bands:  2 eigenvalues not converged
     c_bands:  2 eigenvalues not converged
     c_bands:  1 eigenvalues not converged
     c_bands:  1 eigenvalues not converged
     c_bands:  2 eigenvalues not converged
     c_bands:  1 eigenvalues not converged
     c_bands:  1 eigenvalues not converged
     c_bands:  2 eigenvalues not converged
     c_bands:  1 eigenvalues not converged
     c_bands:  1 eigenvalues not converged
     c_bands:  2 eigenvalues not converged
     c_bands:  1 eigenvalues not converged
     c_bands:  2 eigenvalues not converged
     c_bands:  1 eigenvalues not converged
     c_bands:  1 eigenvalues not converged
     c_bands:  2 eigenvalues not converged
     c_bands:  2 eigenvalues not converged
     c_bands:  2 eigenvalues not converged
     c_bands:  3 eigenvalues not converged
     c_bands:  3 eigenvalues not converged
     c_bands:  3 eigenvalues not converged
     c_bands:  3 eigenvalues not converged
     c_bands:  2 eigenvalues not converged
     c_bands:  2 eigenvalues not converged
     c_bands:  2 eigenvalues not converged
     c_bands:  2 eigenvalues not converged
     c_bands:  1 eigenvalues not converged
     c_bands:  2 eigenvalues not converged
     c_bands:  2 eigenvalues not converged
     c_bands:  1 eigenvalues not converged
     c_bands:  1 eigenvalues not converged
     c_bands:  1 eigenvalues not converged
     c_bands:  1 eigenvalues not converged
     c_bands:  2 eigenvalues not converged
     c_bands:  1 eigenvalues not converged
     c_bands:  1 eigenvalues not converged
     c_bands:  2 eigenvalues not converged
     c_bands:  2 eigenvalues not converged
     c_bands:  1 eigenvalues not converged
     c_bands:  1 eigenvalues not converged
     c_bands:  1 eigenvalues not converged
     c_bands:  2 eigenvalues not converged
     c_bands:  2 eigenvalues not converged
     c_bands:  3 eigenvalues not converged
     c_bands:  1 eigenvalues not converged
     c_bands:  1 eigenvalues not converged
     c_bands:  2 eigenvalues not converged
     c_bands:  2 eigenvalues not converged
     c_bands:  1 eigenvalues not converged
     c_bands:  4 eigenvalues not converged
     c_bands:  1 eigenvalues not converged
     c_bands:  1 eigenvalues not converged
     c_bands:  1 eigenvalues not converged
     c_bands:  1 eigenvalues not converged
     c_bands:  1 eigenvalues not converged
     c_bands:  1 eigenvalues not converged
     c_bands:  1 eigenvalues not converged
     c_bands:  1 eigenvalues not converged
     c_bands:  2 eigenvalues not converged
     c_bands:  4 eigenvalues not converged
     c_bands:  2 eigenvalues not converged
     c_bands:  1 eigenvalues not converged
     c_bands:  1 eigenvalues not converged
     c_bands:  2 eigenvalues not converged
     c_bands:  1 eigenvalues not converged
     c_bands:  1 eigenvalues not converged
     c_bands:  2 eigenvalues not converged
     c_bands:  1 eigenvalues not converged
     c_bands:  1 eigenvalues not converged
     c_bands:  2 eigenvalues not converged
     c_bands:  2 eigenvalues not converged
     c_bands:  2 eigenvalues not converged
     c_bands:  2 eigenvalues not converged
     c_bands:  2 eigenvalues not converged
     c_bands:  2 eigenvalues not converged
     c_bands:  2 eigenvalues not converged
     c_bands:  3 eigenvalues not converged
     c_bands:  2 eigenvalues not converged
     c_bands:  5 eigenvalues not converged
     c_bands:  2 eigenvalues not converged
     c_bands:  3 eigenvalues not converged
     c_bands:  4 eigenvalues not converged
     c_bands:  3 eigenvalues not converged
     c_bands:  2 eigenvalues not converged
     c_bands:  1 eigenvalues not converged
     c_bands:  1 eigenvalues not converged
     c_bands:  1 eigenvalues not converged
     c_bands:  2 eigenvalues not converged
     c_bands:  3 eigenvalues not converged
     c_bands:  1 eigenvalues not converged
     c_bands:  2 eigenvalues not converged
     c_bands:  1 eigenvalues not converged
     c_bands:  1 eigenvalues not converged
     c_bands:  1 eigenvalues not converged
     c_bands:  1 eigenvalues not converged
     c_bands:  1 eigenvalues not converged
     c_bands:  1 eigenvalues not converged
     c_bands:  2 eigenvalues not converged
     c_bands:  1 eigenvalues not converged
     c_bands:  1 eigenvalues not converged
     c_bands:  1 eigenvalues not converged
     c_bands:  3 eigenvalues not converged
     c_bands:  3 eigenvalues not converged
     c_bands:  3 eigenvalues not converged
     c_bands:  1 eigenvalues not converged
     c_bands:  1 eigenvalues not converged
     c_bands:  2 eigenvalues not converged
     c_bands:  3 eigenvalues not converged
     c_bands:  3 eigenvalues not converged
     c_bands:  3 eigenvalues not converged
     c_bands:  2 eigenvalues not converged
     c_bands:  3 eigenvalues not converged
     c_bands:  5 eigenvalues not converged
     c_bands:  2 eigenvalues not converged
     c_bands:  1 eigenvalues not converged
     c_bands:  2 eigenvalues not converged
     c_bands:  3 eigenvalues not converged

     ethr =  8.33E-13,  avg # of iterations = 74.8

     total cpu time spent up to now is     2706.6 secs

     End of band structure calculation

     Number of k-points >= 100: set verbosity='high' to print the bands.

     highest occupied, lowest unoccupied level (ev):    -1.0326   -3.3189



               ==================================================
                            POLARIZATION CALCULATION
                         !!! NOT THOROUGHLY TESTED !!!
               --------------------------------------------------


                     K-POINTS STRINGS USED IN CALCULATIONS
                     ~~~~~~~~~~~~~~~~~~~~~~~~~~~~~~~~~~~~~

       G-vector along string (2 pi/a):  0.00000  0.00000  0.10697
       Modulus of the vector (1/bohr):  0.13347
       Number of k-points per string:   7
       Number of different strings  :  30


                               IONIC POLARIZATION
                               ~~~~~~~~~~~~~~~~~~

  ============================================================================
    Ion    Species    Charge              Position                Phase
  ----------------------------------------------------------------------------
     1        Zn      12.000       0.0000  0.0000  0.0000     0.00000 (mod 2)
  ----------------------------------------------------------------------------
                                               IONIC PHASE:   0.00000 (mod 2)
  ============================================================================


                            ELECTRONIC POLARIZATION
                            ~~~~~~~~~~~~~~~~~~~~~~~

  ============================================================================
    String     Weight      First k-point in string         Phase
  ----------------------------------------------------------------------------
       1      0.003906      0.0000  0.0000  0.0000     0.00000
       2      0.023437      0.0000  0.0722  0.0000     0.00000
       3      0.023437      0.0000  0.1443  0.0000    -0.00000
       4      0.023437      0.0000  0.2165  0.0000     0.00000
       5      0.023437      0.0000  0.2887  0.0000     0.00000
       6      0.023437      0.0000  0.3608  0.0000    -0.00000
       7      0.023437      0.0000  0.4330  0.0000     0.00000
       8      0.023437      0.0000  0.5052  0.0000     0.00000
       9      0.011719      0.0000 -0.5774  0.0000    -0.00000
      10      0.023437      0.0625  0.1083  0.0000    -0.00000
      11      0.046875      0.0625  0.1804  0.0000     0.00000
      12      0.046875      0.0625  0.2526  0.0000    -0.00000
      13      0.046875      0.0625  0.3248  0.0000     0.00000
      14      0.046875      0.0625  0.3969  0.0000     0.00000
      15      0.046875      0.0625  0.4691  0.0000     0.00000
      16      0.046875      0.0625  0.5413  0.0000    -0.00000
      17      0.023437      0.1250  0.2165  0.0000    -0.00000
      18      0.046875      0.1250  0.2887  0.0000    -0.00000
      19      0.046875      0.1250  0.3608  0.0000     0.00000
      20      0.046875      0.1250  0.4330  0.0000     0.00000
      21      0.046875      0.1250  0.5052  0.0000    -0.00000
      22      0.023437      0.1250  0.5774  0.0000    -0.00000
      23      0.023437      0.1875  0.3248  0.0000    -0.00000
      24      0.046875      0.1875  0.3969  0.0000    -0.00000
      25      0.046875      0.1875  0.4691  0.0000    -0.00000
      26      0.046875      0.1875  0.5413  0.0000    -0.00000
      27      0.023437      0.2500  0.4330  0.0000    -0.00000
      28      0.046875      0.2500  0.5052  0.0000     0.00000
      29      0.023437      0.2500  0.5774  0.0000     0.00000
      30      0.023437      0.3125  0.5413  0.0000     0.00000
  ----------------------------------------------------------------------------
                                          ELECTRONIC PHASE:   0.00000
  ============================================================================


                               SUMMARY OF PHASES
                               ~~~~~~~~~~~~~~~~~

                          Ionic Phase:  0.00000
                     Electronic Phase:  0.00000
                          TOTAL PHASE:  0.00000 MOD_TOT: 2


                             VALUES OF POLARIZATION
                             ~~~~~~~~~~~~~~~~~~~~~~

        The calculation of phases done along the direction of vector 3
        of the reciprocal lattice gives the following contribution to
        the polarization vector (in different units, and being Omega
        the volume of the unit cell):

           P =   0.0000000  (mod  94.1527478)  (e/Omega).bohr

           P =   0.0000000  (mod   0.0910625)  e/bohr^2

           P =   0.0000000  (mod   5.2062027)  C/m^2

        The polarization direction is:  ( 0.00000 , 0.00000 , 1.00000 )


               ==================================================



     Writing output data file /home/edmondium/Documents/qe-6.7/tempdir/pwscf.save/

     init_run     :      0.80s CPU      0.93s WALL (       1 calls)
     electrons    :   2643.34s CPU   2704.63s WALL (       1 calls)

     Called by init_run:
     wfcinit      :      0.00s CPU      0.00s WALL (       1 calls)
     potinit      :      0.07s CPU      0.09s WALL (       1 calls)
     hinit0       :      0.53s CPU      0.53s WALL (       1 calls)

     Called by electrons:
     c_bands      :   2640.05s CPU   2700.68s WALL (       1 calls)
     v_of_rho     :      0.07s CPU      0.09s WALL (       1 calls)
     newd         :      0.10s CPU      0.18s WALL (       1 calls)

     Called by c_bands:
     init_us_2    :      0.84s CPU      1.01s WALL (     570 calls)
     ccgdiagg     :   2454.19s CPU   2510.81s WALL (    1215 calls)
     wfcrot       :    183.57s CPU    187.00s WALL (    1215 calls)

     Called by sum_band:

     Called by *cgdiagg:
     h_psi        :   1970.82s CPU   2016.50s WALL (  398545 calls)
     s_psi        :    156.76s CPU    160.73s WALL (  795875 calls)
     cdiaghg      :      1.05s CPU      1.06s WALL (    1215 calls)

     Called by h_psi:
     h_psi:calbec :    157.90s CPU    161.67s WALL (  398545 calls)
     vloc_psi     :   1723.99s CPU   1763.82s WALL (  398545 calls)
     add_vuspsi   :     78.22s CPU     80.27s WALL (  398545 calls)
     hs_1psi      :   1913.89s CPU   1957.58s WALL (  397330 calls)
     s_1psi       :    166.07s CPU    169.55s WALL (  397330 calls)

     General routines
     calbec       :    239.46s CPU    246.46s WALL (  796235 calls)
     fft          :      0.04s CPU      0.04s WALL (      12 calls)
     fftw         :   1399.85s CPU   1432.45s WALL (  862700 calls)
     davcio       :      0.63s CPU      0.90s WALL (     780 calls)

     Parallel routines
     fft_scatt_xy :    192.12s CPU    195.99s WALL (  862712 calls)
     fft_scatt_yz :    300.71s CPU    308.49s WALL (  862712 calls)

     PWSCF        :  44m 6.61s CPU  45m13.40s WALL


   This run was terminated on:  23: 0:47  15Jan2021            

=------------------------------------------------------------------------------=
   JOB DONE.
=------------------------------------------------------------------------------=
