
     Program PWSCF v.6.5 starts on 15Jan2021 at 21:22:59 

     This program is part of the open-source Quantum ESPRESSO suite
     for quantum simulation of materials; please cite
         "P. Giannozzi et al., J. Phys.:Condens. Matter 21 395502 (2009);
         "P. Giannozzi et al., J. Phys.:Condens. Matter 29 465901 (2017);
          URL http://www.quantum-espresso.org", 
     in publications or presentations arising from this work. More details at
     http://www.quantum-espresso.org/quote

     Parallel version (MPI), running on     2 processors

     MPI processes distributed on     1 nodes
     R & G space division:  proc/nbgrp/npool/nimage =       2
     Waiting for input...
     Reading input from standard input

     Current dimensions of program PWSCF are:
     Max number of different atomic species (ntypx) = 10
     Max number of k-points (npk) =  40000
     Max angular momentum in pseudopotentials (lmaxx) =  3
               file Zn.pbe-dnl-rrkjus_psl.1.0.0.UPF: wavefunction(s)  3D renormalized

     Subspace diagonalization in iterative solution of the eigenvalue problem:
     a serial algorithm will be used


     Parallelization info
     --------------------
     sticks:   dense  smooth     PW     G-vecs:    dense   smooth      PW
     Min         156     156     45                20475    20475    3523
     Max         157     157     46                20476    20476    3530
     Sum         313     313     91                40951    40951    7053



     bravais-lattice index     =            4
     lattice parameter (alat)  =       5.0359  a.u.
     unit-cell volume          =    1033.9349 (a.u.)^3
     number of atoms/cell      =            1
     number of atomic types    =            1
     number of electrons       =        12.00
     number of Kohn-Sham states=           25
     kinetic-energy cutoff     =      44.0000  Ry
     charge density cutoff     =     176.0000  Ry
     convergence threshold     =      1.0E-12
     mixing beta               =       0.3000
     number of iterations used =            8  plain     mixing
     Exchange-correlation= PBE
                           (   1   4   3   4   0   0   0)

     celldm(1)=   5.035931  celldm(2)=   0.000000  celldm(3)=   9.348097
     celldm(4)=   0.000000  celldm(5)=   0.000000  celldm(6)=   0.000000

     crystal axes: (cart. coord. in units of alat)
               a(1) = (   1.000000   0.000000   0.000000 )  
               a(2) = (  -0.500000   0.866025   0.000000 )  
               a(3) = (   0.000000   0.000000   9.348097 )  

     reciprocal axes: (cart. coord. in units 2 pi/alat)
               b(1) = (  1.000000  0.577350 -0.000000 )  
               b(2) = (  0.000000  1.154701  0.000000 )  
               b(3) = (  0.000000 -0.000000  0.106974 )  


     PseudoPot. # 1 for Zn read from file:
     /home/edmondium/Documents/qe-6.7/pseudo/Zn.pbe-dnl-rrkjus_psl.1.0.0.UPF
     MD5 check sum: 7f56cabf9682ed8c977c2f7d0c5985c5
     Pseudo is Ultrasoft + core correction, Zval = 12.0
     Generated using "atomic" code by A. Dal Corso v.6.2.2
     Using radial grid of 1201 points,  6 beta functions with: 
                l(1) =   0
                l(2) =   0
                l(3) =   1
                l(4) =   1
                l(5) =   2
                l(6) =   2
     Q(r) pseudized with 0 coefficients 


     atomic species   valence    mass     pseudopotential
        Zn            12.00    65.38000     Zn( 1.00)

     24 Sym. Ops., with inversion, found



   Cartesian axes

     site n.     atom                  positions (alat units)
         1           Zn  tau(   1) = (   0.0000000   0.0000000   0.0000000  )

     number of k points=   270  Marzari-Vanderbilt smearing, width (Ry)=  0.0200

     Number of k-points >= 100: set verbosity='high' to print them.

     Dense  grid:    40951 G-vectors     FFT dimensions: (  24,  24, 200)

     Estimated max dynamical RAM per process >     335.86 MB

     Estimated total dynamical RAM >     671.72 MB

     Check: negative core charge=   -0.000011

     Initial potential from superposition of free atoms

     starting charge   11.99628, renormalised to   12.00000

     negative rho (up, down):  1.340E-03 0.000E+00
     Starting wfcs are random

     total cpu time spent up to now is       43.8 secs

     Self-consistent Calculation

     iteration #  1     ecut=    44.00 Ry     beta= 0.30
     CG style diagonalization
     c_bands:  1 eigenvalues not converged
     c_bands:  1 eigenvalues not converged
     c_bands:  1 eigenvalues not converged
     c_bands:  1 eigenvalues not converged
     c_bands:  1 eigenvalues not converged
     c_bands:  1 eigenvalues not converged
     c_bands:  1 eigenvalues not converged
     c_bands:  1 eigenvalues not converged
     c_bands:  1 eigenvalues not converged
     ethr =  1.00E-02,  avg # of iterations = 11.4

     Threshold (ethr) on eigenvalues was too large:
     Diagonalizing with lowered threshold

     CG style diagonalization
     c_bands:  1 eigenvalues not converged
     c_bands:  4 eigenvalues not converged
     c_bands:  2 eigenvalues not converged
     c_bands:  1 eigenvalues not converged
     c_bands:  1 eigenvalues not converged
     c_bands:  3 eigenvalues not converged
     c_bands:  1 eigenvalues not converged
     c_bands:  2 eigenvalues not converged
     c_bands:  1 eigenvalues not converged
     c_bands:  2 eigenvalues not converged
     c_bands:  1 eigenvalues not converged
     c_bands:  1 eigenvalues not converged
     c_bands:  4 eigenvalues not converged
     c_bands:  1 eigenvalues not converged
     c_bands:  1 eigenvalues not converged
     c_bands:  1 eigenvalues not converged
     c_bands:  1 eigenvalues not converged
     c_bands:  2 eigenvalues not converged
     c_bands:  2 eigenvalues not converged
     c_bands:  2 eigenvalues not converged
     c_bands:  2 eigenvalues not converged
     c_bands:  1 eigenvalues not converged
     c_bands:  2 eigenvalues not converged
     c_bands:  1 eigenvalues not converged
     c_bands:  1 eigenvalues not converged
     c_bands:  2 eigenvalues not converged
     c_bands:  1 eigenvalues not converged
     c_bands:  1 eigenvalues not converged
     c_bands:  2 eigenvalues not converged
     c_bands:  1 eigenvalues not converged
     c_bands:  1 eigenvalues not converged
     c_bands:  2 eigenvalues not converged
     c_bands:  1 eigenvalues not converged
     c_bands:  1 eigenvalues not converged
     c_bands:  2 eigenvalues not converged
     c_bands:  1 eigenvalues not converged
     c_bands:  1 eigenvalues not converged
     c_bands:  1 eigenvalues not converged
     c_bands:  1 eigenvalues not converged
     c_bands:  1 eigenvalues not converged
     c_bands:  1 eigenvalues not converged
     c_bands:  2 eigenvalues not converged
     c_bands:  2 eigenvalues not converged
     c_bands:  2 eigenvalues not converged
     c_bands:  1 eigenvalues not converged
     c_bands:  1 eigenvalues not converged
     c_bands:  1 eigenvalues not converged
     c_bands:  1 eigenvalues not converged
     c_bands:  1 eigenvalues not converged
     c_bands:  2 eigenvalues not converged
     c_bands:  1 eigenvalues not converged
     c_bands:  1 eigenvalues not converged
     c_bands:  1 eigenvalues not converged
     c_bands:  2 eigenvalues not converged
     c_bands:  1 eigenvalues not converged
     c_bands:  1 eigenvalues not converged
     c_bands:  2 eigenvalues not converged
     c_bands:  1 eigenvalues not converged
     c_bands:  1 eigenvalues not converged
     c_bands:  1 eigenvalues not converged
     c_bands:  1 eigenvalues not converged
     c_bands:  2 eigenvalues not converged
     c_bands:  4 eigenvalues not converged
     c_bands:  2 eigenvalues not converged
     c_bands:  2 eigenvalues not converged
     c_bands:  1 eigenvalues not converged
     c_bands:  2 eigenvalues not converged
     c_bands:  2 eigenvalues not converged
     c_bands:  1 eigenvalues not converged
     c_bands:  1 eigenvalues not converged
     c_bands:  1 eigenvalues not converged
     c_bands:  1 eigenvalues not converged
     c_bands:  2 eigenvalues not converged
     c_bands:  2 eigenvalues not converged
     c_bands:  1 eigenvalues not converged
     c_bands:  1 eigenvalues not converged
     c_bands:  1 eigenvalues not converged
     c_bands:  2 eigenvalues not converged
     c_bands:  1 eigenvalues not converged
     c_bands:  1 eigenvalues not converged
     c_bands:  1 eigenvalues not converged
     c_bands:  1 eigenvalues not converged
     c_bands:  1 eigenvalues not converged
     c_bands:  1 eigenvalues not converged
     c_bands:  1 eigenvalues not converged
     c_bands:  1 eigenvalues not converged
     c_bands:  1 eigenvalues not converged
     c_bands:  2 eigenvalues not converged
     c_bands:  1 eigenvalues not converged
     c_bands:  2 eigenvalues not converged
     c_bands:  1 eigenvalues not converged
     c_bands:  2 eigenvalues not converged
     c_bands:  1 eigenvalues not converged
     c_bands:  1 eigenvalues not converged
     c_bands:  1 eigenvalues not converged
     c_bands:  1 eigenvalues not converged
     c_bands:  2 eigenvalues not converged
     c_bands:  1 eigenvalues not converged
     c_bands:  1 eigenvalues not converged
     c_bands:  1 eigenvalues not converged
     c_bands:  2 eigenvalues not converged
     c_bands:  2 eigenvalues not converged
     c_bands:  2 eigenvalues not converged
     c_bands:  1 eigenvalues not converged
     c_bands:  1 eigenvalues not converged
     c_bands:  2 eigenvalues not converged
     c_bands:  1 eigenvalues not converged
     c_bands:  1 eigenvalues not converged
     c_bands:  1 eigenvalues not converged
     c_bands:  3 eigenvalues not converged
     c_bands:  2 eigenvalues not converged
     c_bands:  1 eigenvalues not converged
     c_bands:  1 eigenvalues not converged
     c_bands:  1 eigenvalues not converged
     c_bands:  2 eigenvalues not converged
     c_bands:  1 eigenvalues not converged
     c_bands:  2 eigenvalues not converged
     c_bands:  1 eigenvalues not converged
     c_bands:  1 eigenvalues not converged
     c_bands:  1 eigenvalues not converged
     c_bands:  2 eigenvalues not converged
     c_bands:  2 eigenvalues not converged
     c_bands:  1 eigenvalues not converged
     c_bands:  1 eigenvalues not converged
     c_bands:  1 eigenvalues not converged
     c_bands:  3 eigenvalues not converged
     c_bands:  1 eigenvalues not converged
     c_bands:  1 eigenvalues not converged
     c_bands:  1 eigenvalues not converged
     c_bands:  1 eigenvalues not converged
     c_bands:  1 eigenvalues not converged
     c_bands:  1 eigenvalues not converged
     c_bands:  2 eigenvalues not converged
     c_bands:  1 eigenvalues not converged
     c_bands:  1 eigenvalues not converged
     c_bands:  2 eigenvalues not converged
     c_bands:  1 eigenvalues not converged
     c_bands:  2 eigenvalues not converged
     c_bands:  2 eigenvalues not converged
     c_bands:  1 eigenvalues not converged
     c_bands:  1 eigenvalues not converged
     c_bands:  1 eigenvalues not converged
     c_bands:  1 eigenvalues not converged
     c_bands:  2 eigenvalues not converged
     c_bands:  2 eigenvalues not converged
     c_bands:  1 eigenvalues not converged
     c_bands:  1 eigenvalues not converged
     c_bands:  2 eigenvalues not converged
     c_bands:  2 eigenvalues not converged
     c_bands:  1 eigenvalues not converged
     c_bands:  1 eigenvalues not converged
     c_bands:  3 eigenvalues not converged
     c_bands:  1 eigenvalues not converged
     c_bands:  1 eigenvalues not converged
     c_bands:  1 eigenvalues not converged
     c_bands:  1 eigenvalues not converged
     c_bands:  1 eigenvalues not converged
     c_bands:  1 eigenvalues not converged
     c_bands:  2 eigenvalues not converged
     c_bands:  1 eigenvalues not converged
     c_bands:  1 eigenvalues not converged
     c_bands:  1 eigenvalues not converged
     c_bands:  1 eigenvalues not converged
     c_bands:  1 eigenvalues not converged
     c_bands:  2 eigenvalues not converged
     c_bands:  3 eigenvalues not converged
     c_bands:  1 eigenvalues not converged
     c_bands:  1 eigenvalues not converged
     c_bands:  1 eigenvalues not converged
     c_bands:  1 eigenvalues not converged
     c_bands:  2 eigenvalues not converged
     c_bands:  1 eigenvalues not converged
     ethr =  1.75E-04,  avg # of iterations = 10.4

     negative rho (up, down):  1.324E-03 0.000E+00

     total cpu time spent up to now is      952.0 secs

     total energy              =    -148.31081970 Ry
     Harris-Foulkes estimate   =    -148.32314250 Ry
     estimated scf accuracy    <       0.03577209 Ry

     iteration #  2     ecut=    44.00 Ry     beta= 0.30
     CG style diagonalization
     ethr =  2.98E-04,  avg # of iterations =  3.2

     negative rho (up, down):  1.349E-03 0.000E+00

     total cpu time spent up to now is     1090.2 secs

     total energy              =    -148.31338437 Ry
     Harris-Foulkes estimate   =    -148.31552852 Ry
     estimated scf accuracy    <       0.00628785 Ry

     iteration #  3     ecut=    44.00 Ry     beta= 0.30
     CG style diagonalization
     c_bands:  1 eigenvalues not converged
     c_bands:  1 eigenvalues not converged
     c_bands:  1 eigenvalues not converged
     c_bands:  1 eigenvalues not converged
     c_bands:  1 eigenvalues not converged
     c_bands:  1 eigenvalues not converged
     c_bands:  1 eigenvalues not converged
     c_bands:  1 eigenvalues not converged
     c_bands:  1 eigenvalues not converged
     c_bands:  1 eigenvalues not converged
     c_bands:  1 eigenvalues not converged
     c_bands:  1 eigenvalues not converged
     c_bands:  1 eigenvalues not converged
     ethr =  5.24E-05,  avg # of iterations =  4.2

     negative rho (up, down):  1.360E-03 0.000E+00

     total cpu time spent up to now is     1276.3 secs

     total energy              =    -148.31443762 Ry
     Harris-Foulkes estimate   =    -148.31530331 Ry
     estimated scf accuracy    <       0.00141744 Ry

     iteration #  4     ecut=    44.00 Ry     beta= 0.30
     CG style diagonalization
     c_bands:  1 eigenvalues not converged
     c_bands:  1 eigenvalues not converged
     c_bands:  1 eigenvalues not converged
     c_bands:  1 eigenvalues not converged
     c_bands:  1 eigenvalues not converged
     c_bands:  1 eigenvalues not converged
     c_bands:  1 eigenvalues not converged
     c_bands:  1 eigenvalues not converged
     c_bands:  1 eigenvalues not converged
     c_bands:  1 eigenvalues not converged
     c_bands:  1 eigenvalues not converged
     c_bands:  1 eigenvalues not converged
     c_bands:  1 eigenvalues not converged
     c_bands:  1 eigenvalues not converged
     c_bands:  1 eigenvalues not converged
     c_bands:  1 eigenvalues not converged
     c_bands:  1 eigenvalues not converged
     c_bands:  1 eigenvalues not converged
     c_bands:  1 eigenvalues not converged
     c_bands:  1 eigenvalues not converged
     c_bands:  1 eigenvalues not converged
     c_bands:  1 eigenvalues not converged
     c_bands:  1 eigenvalues not converged
     c_bands:  1 eigenvalues not converged
     c_bands:  1 eigenvalues not converged
     ethr =  1.18E-05,  avg # of iterations =  5.1

     negative rho (up, down):  1.367E-03 0.000E+00

     total cpu time spent up to now is     1499.8 secs

     total energy              =    -148.31447615 Ry
     Harris-Foulkes estimate   =    -148.31726931 Ry
     estimated scf accuracy    <       0.00738013 Ry

     iteration #  5     ecut=    44.00 Ry     beta= 0.30
     CG style diagonalization
     c_bands:  1 eigenvalues not converged
     c_bands:  1 eigenvalues not converged
     c_bands:  1 eigenvalues not converged
     c_bands:  1 eigenvalues not converged
     ethr =  1.18E-05,  avg # of iterations =  3.5

     negative rho (up, down):  1.372E-03 0.000E+00

     total cpu time spent up to now is     1656.5 secs

     total energy              =    -148.31502787 Ry
     Harris-Foulkes estimate   =    -148.31529051 Ry
     estimated scf accuracy    <       0.00046989 Ry

     iteration #  6     ecut=    44.00 Ry     beta= 0.30
     CG style diagonalization
     c_bands:  1 eigenvalues not converged
     c_bands:  1 eigenvalues not converged
     c_bands:  1 eigenvalues not converged
     c_bands:  1 eigenvalues not converged
     c_bands:  1 eigenvalues not converged
     c_bands:  1 eigenvalues not converged
     c_bands:  1 eigenvalues not converged
     c_bands:  1 eigenvalues not converged
     c_bands:  1 eigenvalues not converged
     c_bands:  1 eigenvalues not converged
     c_bands:  1 eigenvalues not converged
     c_bands:  1 eigenvalues not converged
     c_bands:  1 eigenvalues not converged
     ethr =  3.92E-06,  avg # of iterations =  3.9

     negative rho (up, down):  1.372E-03 0.000E+00

     total cpu time spent up to now is     1833.4 secs

     total energy              =    -148.31516975 Ry
     Harris-Foulkes estimate   =    -148.31519172 Ry
     estimated scf accuracy    <       0.00005215 Ry

     iteration #  7     ecut=    44.00 Ry     beta= 0.30
     CG style diagonalization
     c_bands:  1 eigenvalues not converged
     c_bands:  1 eigenvalues not converged
     c_bands:  1 eigenvalues not converged
     c_bands:  1 eigenvalues not converged
     c_bands:  1 eigenvalues not converged
     c_bands:  1 eigenvalues not converged
     c_bands:  1 eigenvalues not converged
     c_bands:  1 eigenvalues not converged
     c_bands:  1 eigenvalues not converged
     c_bands:  1 eigenvalues not converged
     c_bands:  1 eigenvalues not converged
     c_bands:  1 eigenvalues not converged
     c_bands:  1 eigenvalues not converged
     c_bands:  1 eigenvalues not converged
     c_bands:  1 eigenvalues not converged
     c_bands:  1 eigenvalues not converged
     c_bands:  1 eigenvalues not converged
     ethr =  4.35E-07,  avg # of iterations =  3.7

     negative rho (up, down):  1.373E-03 0.000E+00

     total cpu time spent up to now is     1999.2 secs

     total energy              =    -148.31518253 Ry
     Harris-Foulkes estimate   =    -148.31518263 Ry
     estimated scf accuracy    <       0.00000104 Ry

     iteration #  8     ecut=    44.00 Ry     beta= 0.30
     CG style diagonalization
     c_bands:  1 eigenvalues not converged
     ethr =  8.68E-09,  avg # of iterations =  3.3

     negative rho (up, down):  1.373E-03 0.000E+00

     total cpu time spent up to now is     2146.9 secs

     total energy              =    -148.31518305 Ry
     Harris-Foulkes estimate   =    -148.31518321 Ry
     estimated scf accuracy    <       0.00000030 Ry

     iteration #  9     ecut=    44.00 Ry     beta= 0.30
     CG style diagonalization
     ethr =  2.49E-09,  avg # of iterations =  3.3

     negative rho (up, down):  1.373E-03 0.000E+00

     total cpu time spent up to now is     2292.4 secs

     total energy              =    -148.31518314 Ry
     Harris-Foulkes estimate   =    -148.31518316 Ry
     estimated scf accuracy    <       0.00000005 Ry

     iteration # 10     ecut=    44.00 Ry     beta= 0.30
     CG style diagonalization
     c_bands:  1 eigenvalues not converged
     ethr =  3.92E-10,  avg # of iterations =  3.1

     negative rho (up, down):  1.373E-03 0.000E+00

     total cpu time spent up to now is     2433.7 secs

     total energy              =    -148.31518315 Ry
     Harris-Foulkes estimate   =    -148.31518315 Ry
     estimated scf accuracy    <          5.1E-09 Ry

     iteration # 11     ecut=    44.00 Ry     beta= 0.30
     CG style diagonalization
     ethr =  4.23E-11,  avg # of iterations =  3.2

     negative rho (up, down):  1.373E-03 0.000E+00

     total cpu time spent up to now is     2578.9 secs

     total energy              =    -148.31518315 Ry
     Harris-Foulkes estimate   =    -148.31518315 Ry
     estimated scf accuracy    <          2.7E-10 Ry

     iteration # 12     ecut=    44.00 Ry     beta= 0.30
     CG style diagonalization
     ethr =  2.26E-12,  avg # of iterations =  3.3

     negative rho (up, down):  1.373E-03 0.000E+00

     total cpu time spent up to now is     2724.4 secs

     total energy              =    -148.31518315 Ry
     Harris-Foulkes estimate   =    -148.31518315 Ry
     estimated scf accuracy    <          4.0E-12 Ry

     iteration # 13     ecut=    44.00 Ry     beta= 0.30
     CG style diagonalization
     ethr =  1.00E-13,  avg # of iterations =  3.2

     negative rho (up, down):  1.373E-03 0.000E+00

     total cpu time spent up to now is     2869.3 secs

     total energy              =    -148.31518315 Ry
     Harris-Foulkes estimate   =    -148.31518315 Ry
     estimated scf accuracy    <          1.5E-12 Ry

     iteration # 14     ecut=    44.00 Ry     beta= 0.30
     CG style diagonalization
     ethr =  1.00E-13,  avg # of iterations =  3.0

     negative rho (up, down):  1.373E-03 0.000E+00

     total cpu time spent up to now is     3006.8 secs

     total energy              =    -148.31518315 Ry
     Harris-Foulkes estimate   =    -148.31518315 Ry
     estimated scf accuracy    <          3.3E-12 Ry

     iteration # 15     ecut=    44.00 Ry     beta= 0.30
     CG style diagonalization
     ethr =  1.00E-13,  avg # of iterations =  3.0

     negative rho (up, down):  1.373E-03 0.000E+00

     total cpu time spent up to now is     3146.2 secs

     End of self-consistent calculation

     Number of k-points >= 100: set verbosity='high' to print the bands.

     the Fermi energy is    -2.5045 ev

!    total energy              =    -148.31518315 Ry
     Harris-Foulkes estimate   =    -148.31518315 Ry
     estimated scf accuracy    <          7.8E-13 Ry

     The total energy is the sum of the following terms:

     one-electron contribution =    -629.42431262 Ry
     hartree contribution      =     325.47376302 Ry
     xc contribution           =     -47.10763761 Ry
     ewald contribution        =     202.74346382 Ry
     smearing contrib. (-TS)   =      -0.00045976 Ry

     convergence has been achieved in  15 iterations

     Writing output data file /home/edmondium/Documents/qe-6.7/tempdir/pwscf.save/

     init_run     :     40.41s CPU     41.94s WALL (       1 calls)
     electrons    :   3025.27s CPU   3102.37s WALL (       1 calls)

     Called by init_run:
     wfcinit      :     39.26s CPU     40.52s WALL (       1 calls)
     potinit      :      0.16s CPU      0.23s WALL (       1 calls)
     hinit0       :      0.69s CPU      0.78s WALL (       1 calls)

     Called by electrons:
     c_bands      :   2764.45s CPU   2833.82s WALL (      16 calls)
     sum_band     :    257.53s CPU    264.27s WALL (      16 calls)
     v_of_rho     :      1.43s CPU      1.64s WALL (      16 calls)
     newd         :      1.72s CPU      2.48s WALL (      16 calls)
     mix_rho      :      0.28s CPU      0.31s WALL (      16 calls)

     Called by c_bands:
     init_us_2    :     16.46s CPU     16.74s WALL (    8910 calls)
     ccgdiagg     :   2247.13s CPU   2305.65s WALL (    4320 calls)
     wfcrot       :    539.14s CPU    550.86s WALL (    4050 calls)

     Called by sum_band:
     sum_band:bec :      0.16s CPU      0.16s WALL (    4320 calls)
     addusdens    :      2.10s CPU      2.63s WALL (      16 calls)

     Called by *cgdiagg:
     h_psi        :   2150.67s CPU   2206.45s WALL (  386906 calls)
     s_psi        :    159.68s CPU    163.93s WALL (  769762 calls)
     cdiaghg      :      2.72s CPU      2.79s WALL (    4050 calls)

     Called by h_psi:
     h_psi:calbec :    168.91s CPU    173.19s WALL (  386906 calls)
     vloc_psi     :   1883.52s CPU   1932.74s WALL (  386906 calls)
     add_vuspsi   :     86.33s CPU     88.54s WALL (  386906 calls)
     hs_1psi      :   1800.50s CPU   1846.90s WALL (  382856 calls)
     s_1psi       :    159.02s CPU    162.85s WALL (  382856 calls)

     General routines
     calbec       :    266.86s CPU    274.76s WALL (  774082 calls)
     fft          :      0.70s CPU      0.90s WALL (     177 calls)
     ffts         :      0.05s CPU      0.05s WALL (      16 calls)
     fftw         :   1705.41s CPU   1750.23s WALL ( 1076212 calls)

     Parallel routines
     fft_scatt_xy :    255.38s CPU    260.95s WALL ( 1076405 calls)
     fft_scatt_yz :    358.12s CPU    368.51s WALL ( 1076405 calls)

     PWSCF        :  51m 8.52s CPU  52m30.78s WALL


   This run was terminated on:  22:15:30  15Jan2021            

=------------------------------------------------------------------------------=
   JOB DONE.
=------------------------------------------------------------------------------=
